 Entering Gaussian System, Link 0=g09
 Input=C2H4_cation.com
 Output=C2H4_cation.log
 Initial command:
 /opt/g09/l1.exe /home/jarvist/work/NWCHEM/CDFT/Gau-29105.inp -scrdir=/home/jarvist/work/NWCHEM/CDFT/
 Default is to use a total of   8 processors:
                                8 via shared-memory
                                1 via Linda
 Entering Link 1 = /opt/g09/l1.exe PID=     29107.
  
 Copyright (c) 1988,1990,1992,1993,1995,1998,2003,2009, Gaussian, Inc.
                  All Rights Reserved.
  
 This is part of the Gaussian(R) 09 program.  It is based on
 the Gaussian(R) 03 system (copyright 2003, Gaussian, Inc.),
 the Gaussian(R) 98 system (copyright 1998, Gaussian, Inc.),
 the Gaussian(R) 94 system (copyright 1995, Gaussian, Inc.),
 the Gaussian 92(TM) system (copyright 1992, Gaussian, Inc.),
 the Gaussian 90(TM) system (copyright 1990, Gaussian, Inc.),
 the Gaussian 88(TM) system (copyright 1988, Gaussian, Inc.),
 the Gaussian 86(TM) system (copyright 1986, Carnegie Mellon
 University), and the Gaussian 82(TM) system (copyright 1983,
 Carnegie Mellon University). Gaussian is a federally registered
 trademark of Gaussian, Inc.
  
 This software contains proprietary and confidential information,
 including trade secrets, belonging to Gaussian, Inc.
  
 This software is provided under written license and may be
 used, copied, transmitted, or stored only in accord with that
 written license.
  
 The following legend is applicable only to US Government
 contracts under FAR:
  
                    RESTRICTED RIGHTS LEGEND
  
 Use, reproduction and disclosure by the US Government is
 subject to restrictions as set forth in subparagraphs (a)
 and (c) of the Commercial Computer Software - Restricted
 Rights clause in FAR 52.227-19.
  
 Gaussian, Inc.
 340 Quinnipiac St., Bldg. 40, Wallingford CT 06492
  
  
 ---------------------------------------------------------------
 Warning -- This program may not be used in any manner that
 competes with the business of Gaussian, Inc. or will provide
 assistance to any competitor of Gaussian, Inc.  The licensee
 of this program is prohibited from giving any competitor of
 Gaussian, Inc. access to this program.  By using this program,
 the user acknowledges that Gaussian, Inc. is engaged in the
 business of creating and licensing software in the field of
 computational chemistry and represents and warrants to the
 licensee that it is not a competitor of Gaussian, Inc. and that
 it will not use this program in any manner prohibited above.
 ---------------------------------------------------------------
  

 Cite this work as:
 Gaussian 09, Revision A.02,
 M. J. Frisch, G. W. Trucks, H. B. Schlegel, G. E. Scuseria, 
 M. A. Robb, J. R. Cheeseman, G. Scalmani, V. Barone, B. Mennucci, 
 G. A. Petersson, H. Nakatsuji, M. Caricato, X. Li, H. P. Hratchian, 
 A. F. Izmaylov, J. Bloino, G. Zheng, J. L. Sonnenberg, M. Hada, 
 M. Ehara, K. Toyota, R. Fukuda, J. Hasegawa, M. Ishida, T. Nakajima, 
 Y. Honda, O. Kitao, H. Nakai, T. Vreven, J. A. Montgomery, Jr., 
 J. E. Peralta, F. Ogliaro, M. Bearpark, J. J. Heyd, E. Brothers, 
 K. N. Kudin, V. N. Staroverov, R. Kobayashi, J. Normand, 
 K. Raghavachari, A. Rendell, J. C. Burant, S. S. Iyengar, J. Tomasi, 
 M. Cossi, N. Rega, J. M. Millam, M. Klene, J. E. Knox, J. B. Cross, 
 V. Bakken, C. Adamo, J. Jaramillo, R. Gomperts, R. E. Stratmann, 
 O. Yazyev, A. J. Austin, R. Cammi, C. Pomelli, J. W. Ochterski, 
 R. L. Martin, K. Morokuma, V. G. Zakrzewski, G. A. Voth, 
 P. Salvador, J. J. Dannenberg, S. Dapprich, A. D. Daniels, 
 O. Farkas, J. B. Foresman, J. V. Ortiz, J. Cioslowski, 
 and D. J. Fox, Gaussian, Inc., Wallingford CT, 2009.
 
 ******************************************
 Gaussian 09:  EM64L-G09RevA.02 11-Jun-2009
                15-Apr-2015 
 ******************************************
 %nprocshared=24
 Will use up to   24 processors via shared memory.
 Default route:  MaxDisk=100GB
 ----------------------------------------
 #p opt b3lyp/6-311g(d) geom=connectivity
 ----------------------------------------
 1/14=-1,18=20,19=15,26=3,38=1,57=2/1,3;
 2/9=110,12=2,17=6,18=5,40=1/2;
 3/5=4,6=6,7=1,11=2,16=1,25=1,30=1,71=1,74=-5/1,2,3;
 4//1;
 5/5=2,38=5/2;
 6/7=2,8=2,9=2,10=2,28=1/1;
 7//1,2,3,16;
 1/14=-1,18=20,19=15/3(2);
 2/9=110/2;
 99//99;
 2/9=110/2;
 3/5=4,6=6,7=1,11=2,16=1,25=1,30=1,71=1,74=-5/1,2,3;
 4/5=5,16=3/1;
 5/5=2,38=5/2;
 7//1,2,3,16;
 1/14=-1,18=20,19=15/3(-5);
 2/9=110/2;
 6/7=2,8=2,9=2,10=2,19=2,28=1/1;
 99/9=1/99;
 Leave Link    1 at Wed Apr 15 21:42:37 2015, MaxMem=          0 cpu:       1.9
 (Enter /opt/g09/l101.exe)
 -----------------------
 C2H2 Ethylene; Geom Opt
 -----------------------
 Symbolic Z-matrix:
 Charge =  1 Multiplicity = 2
 C                    -0.6776    0.        0. 
 C                     0.6776    0.        0. 
 H                    -1.2126    0.92665   0. 
 H                    -1.2126   -0.92665   0. 
 H                     1.2126   -0.92665   0. 
 H                     1.2126    0.92665   0. 
 
 NAtoms=      6 NQM=      6 NQMF=      0 NMic=      0 NMicF=      0 NTot=      6.
                    Isotopes and Nuclear Properties:
 (Nuclear quadrupole moments (NQMom) in fm**2, nuclear magnetic moments (NMagM)
  in nuclear magnetons)

  Atom         1           2           3           4           5           6
 IAtWgt=          12          12           1           1           1           1
 AtmWgt=  12.0000000  12.0000000   1.0078250   1.0078250   1.0078250   1.0078250
 NucSpn=           0           0           1           1           1           1
 AtZEff=   0.0000000   0.0000000   0.0000000   0.0000000   0.0000000   0.0000000
 NQMom=    0.0000000   0.0000000   0.0000000   0.0000000   0.0000000   0.0000000
 NMagM=    0.0000000   0.0000000   2.7928460   2.7928460   2.7928460   2.7928460
 Leave Link  101 at Wed Apr 15 21:42:37 2015, MaxMem= 2013265920 cpu:       2.5
 (Enter /opt/g09/l103.exe)

 GradGradGradGradGradGradGradGradGradGradGradGradGradGradGradGradGradGrad
 Berny optimization.
 Initialization pass.
                           ----------------------------
                           !    Initial Parameters    !
                           ! (Angstroms and Degrees)  !
 --------------------------                            --------------------------
 ! Name  Definition              Value          Derivative Info.                !
 --------------------------------------------------------------------------------
 ! R1    R(1,2)                  1.3552         estimate D2E/DX2                !
 ! R2    R(1,3)                  1.07           estimate D2E/DX2                !
 ! R3    R(1,4)                  1.07           estimate D2E/DX2                !
 ! R4    R(2,5)                  1.07           estimate D2E/DX2                !
 ! R5    R(2,6)                  1.07           estimate D2E/DX2                !
 ! A1    A(2,1,3)              120.0            estimate D2E/DX2                !
 ! A2    A(2,1,4)              120.0            estimate D2E/DX2                !
 ! A3    A(3,1,4)              120.0            estimate D2E/DX2                !
 ! A4    A(1,2,5)              120.0            estimate D2E/DX2                !
 ! A5    A(1,2,6)              120.0            estimate D2E/DX2                !
 ! A6    A(5,2,6)              120.0            estimate D2E/DX2                !
 ! D1    D(3,1,2,5)            180.0            estimate D2E/DX2                !
 ! D2    D(3,1,2,6)              0.0            estimate D2E/DX2                !
 ! D3    D(4,1,2,5)              0.0            estimate D2E/DX2                !
 ! D4    D(4,1,2,6)            180.0            estimate D2E/DX2                !
 --------------------------------------------------------------------------------
 Trust Radius=3.00D-01 FncErr=1.00D-07 GrdErr=1.00D-06
 Number of steps in this run=  25 maximum allowed number of steps= 100.
 GradGradGradGradGradGradGradGradGradGradGradGradGradGradGradGradGradGrad

 Leave Link  103 at Wed Apr 15 21:42:38 2015, MaxMem= 2013265920 cpu:       0.2
 (Enter /opt/g09/l202.exe)
                          Input orientation:                          
 ---------------------------------------------------------------------
 Center     Atomic      Atomic             Coordinates (Angstroms)
 Number     Number       Type             X           Y           Z
 ---------------------------------------------------------------------
      1          6           0       -0.677600    0.000000    0.000000
      2          6           0        0.677600    0.000000    0.000000
      3          1           0       -1.212600    0.926647    0.000000
      4          1           0       -1.212600   -0.926647    0.000000
      5          1           0        1.212600   -0.926647    0.000000
      6          1           0        1.212600    0.926647    0.000000
 ---------------------------------------------------------------------
                    Distance matrix (angstroms):
                    1          2          3          4          5
     1  C    0.000000
     2  C    1.355200   0.000000
     3  H    1.070000   2.105120   0.000000
     4  H    1.070000   2.105120   1.853294   0.000000
     5  H    2.105120   1.070000   3.052261   2.425200   0.000000
     6  H    2.105120   1.070000   2.425200   3.052261   1.853294
                    6
     6  H    0.000000
 Stoichiometry    C2H4(1+,2)
 Framework group  D2H[C2"(C.C),SG(H4)]
 Deg. of freedom     3
 Full point group                 D2H     NOp   8
 Largest Abelian subgroup         D2H     NOp   8
 Largest concise Abelian subgroup D2      NOp   4
                         Standard orientation:                         
 ---------------------------------------------------------------------
 Center     Atomic      Atomic             Coordinates (Angstroms)
 Number     Number       Type             X           Y           Z
 ---------------------------------------------------------------------
      1          6           0        0.000000    0.000000    0.677600
      2          6           0        0.000000    0.000000   -0.677600
      3          1           0        0.000000    0.926647    1.212600
      4          1           0        0.000000   -0.926647    1.212600
      5          1           0        0.000000   -0.926647   -1.212600
      6          1           0        0.000000    0.926647   -1.212600
 ---------------------------------------------------------------------
 Rotational constants (GHZ):    145.9967690     29.8211117     24.7630442
 Leave Link  202 at Wed Apr 15 21:42:38 2015, MaxMem= 2013265920 cpu:       1.0
 (Enter /opt/g09/l301.exe)
 Standard basis: 6-311G(d) (5D, 7F)
 Ernie: Thresh=  0.10000D-02 Tol=  0.10000D-05 Strict=F.
 There are    12 symmetry adapted basis functions of AG  symmetry.
 There are     1 symmetry adapted basis functions of B1G symmetry.
 There are     4 symmetry adapted basis functions of B2G symmetry.
 There are     7 symmetry adapted basis functions of B3G symmetry.
 There are     1 symmetry adapted basis functions of AU  symmetry.
 There are    12 symmetry adapted basis functions of B1U symmetry.
 There are     7 symmetry adapted basis functions of B2U symmetry.
 There are     4 symmetry adapted basis functions of B3U symmetry.
 Integral buffers will be    131072 words long.
 Raffenetti 2 integral format.
 Two-electron integral symmetry is turned on.
    48 basis functions,    84 primitive gaussians,    50 cartesian basis functions
     8 alpha electrons        7 beta electrons
       nuclear repulsion energy        33.3138808313 Hartrees.
 IExCor=  402 DFT=T Ex+Corr=B3LYP ExCW=0 ScaHFX=  0.200000
 ScaDFX=  0.800000  0.720000  1.000000  0.810000 ScalE2=  1.000000  1.000000
 IRadAn=      0 IRanWt=     -1 IRanGd=            0 ICorTp=0
 NAtoms=    6 NActive=    6 NUniq=    2 SFac= 3.00D+00 NAtFMM=   80 NAOKFM=F Big=F
 Leave Link  301 at Wed Apr 15 21:42:38 2015, MaxMem= 2013265920 cpu:       2.2
 (Enter /opt/g09/l302.exe)
 NPDir=0 NMtPBC=     1 NCelOv=     1 NCel=       1 NClECP=     1 NCelD=      1
         NCelK=      1 NCelE2=     1 NClLst=     1 CellRange=     0.0.
 One-electron integrals computed using PRISM.
 One-electron integral symmetry used in STVInt
 NBasis=    48 RedAO= T  NBF=    12     1     4     7     1    12     7     4
 NBsUse=    48 1.00D-06 NBFU=    12     1     4     7     1    12     7     4
 Precomputing XC quadrature grid using
 IXCGrd= 2 IRadAn=           0 IRanWt=          -1 IRanGd=           0 AccXCQ= 1.00D-10.
 NRdTot=     374 NPtTot=       47012 NUsed=       49721 NTot=       49753
 NSgBfM=    50    50    50    50    50 NAtAll=     6     6.
 Leave Link  302 at Wed Apr 15 21:42:46 2015, MaxMem= 2013265920 cpu:      69.0
 (Enter /opt/g09/l303.exe)
 DipDrv:  MaxL=1.
 Leave Link  303 at Wed Apr 15 21:42:47 2015, MaxMem= 2013265920 cpu:       6.8
 (Enter /opt/g09/l401.exe)
 Harris functional with IExCor=  402 diagonalized for initial guess.
 ExpMin= 1.03D-01 ExpMax= 4.56D+03 ExpMxC= 6.82D+02 IAcc=1 IRadAn=         1 AccDes= 0.00D+00
 HarFok:  IExCor=  402 AccDes= 0.00D+00 IRadAn=         1 IDoV= 1
 ScaDFX=  1.000000  1.000000  1.000000  1.000000
 FoFCou: FMM=F IPFlag=           0 FMFlag=      100000 FMFlg1=           0
         NFxFlg=           0 DoJE=T BraDBF=F KetDBF=T FulRan=T
         Omega=  0.000000  0.000000  1.000000  0.000000  0.000000 ICntrl=     500 IOpCl=  0
         NMat0=    1 NMatS0=    1 NMatT0=    0 NMatD0=    1 NMtDS0=    0 NMtDT0=    0
         I1Cent=           4 NGrid=           0.
 Petite list used in FoFCou.
 Harris En= -78.2876388346696    
 Initial guess orbital symmetries:
 Alpha Orbitals:
       Occupied  (AG) (B1U) (AG) (B1U) (B2U) (AG) (B3G) (B3U)
       Virtual   (B2G) (AG) (B2U) (B1U) (B3G) (B1U) (AG) (B2U)
                 (AG) (B1U) (B3U) (B2G) (B3G) (B2U) (B1U) (AG)
                 (B1U) (B3G) (B1G) (B3U) (B2U) (AG) (AU) (B1U)
                 (AG) (B3G) (B2G) (B1U) (AG) (B2U) (B1U) (B3U)
                 (B3G) (B2G) (AG) (B2U) (B3G) (B1U) (AG) (B1U)
 Beta  Orbitals:
       Occupied  (AG) (B1U) (AG) (B1U) (B2U) (AG) (B3G)
       Virtual   (B3U) (B2G) (AG) (B2U) (B1U) (B3G) (B1U) (AG)
                 (B2U) (AG) (B1U) (B3U) (B2G) (B3G) (B2U) (B1U)
                 (AG) (B1U) (B3G) (B1G) (B3U) (B2U) (AG) (AU) (B1U)
                 (AG) (B3G) (B2G) (B1U) (AG) (B2U) (B1U) (B3U)
                 (B3G) (B2G) (AG) (B2U) (B3G) (B1U) (AG) (B1U)
 The electronic state of the initial guess is 2-B3U.
 Initial guess <Sx>= 0.0000 <Sy>= 0.0000 <Sz>= 0.5000 <S**2>= 0.7500 S= 0.5000
 Leave Link  401 at Wed Apr 15 21:42:54 2015, MaxMem= 2013265920 cpu:      59.4
 (Enter /opt/g09/l502.exe)
 UHF open shell SCF:
 Requested convergence on RMS density matrix=1.00D-08 within 128 cycles.
 Requested convergence on MAX density matrix=1.00D-06.
 Requested convergence on             energy=1.00D-06.
 No special actions if energy rises.
 Using DIIS extrapolation, IDIIS=  1040.
 Integral symmetry usage will be decided dynamically.
        49654 words used for storage of precomputed grid.
 Keep R1 and R2 ints in memory in canonical form, NReq=2571891.
 IEnd=       77180 IEndB=       77180 NGot=  2013265920 MDV=  2011581003
 LenX=  2011581003 LenY=  2011578062
 Symmetry not used in FoFDir.
 MinBra= 0 MaxBra= 2 Meth= 1.
 IRaf=       0 NMat=   1 IRICut=       1 DoRegI=T DoRafI=F ISym2E= 0 JSym2E=0.
 Integral accuracy reduced to 1.0D-05 until final iterations.

 Cycle   1  Pass 0  IDiag  1:
 E= -78.2107368972157    
 DIIS: error= 2.44D-02 at cycle   1 NSaved=   1.
 NSaved= 1 IEnMin= 1 EnMin= -78.2107368972157     IErMin= 1 ErrMin= 2.44D-02
 ErrMax= 2.44D-02 EMaxC= 1.00D-01 BMatC= 6.26D-02 BMatP= 6.26D-02
 IDIUse=3 WtCom= 7.56D-01 WtEn= 2.44D-01
 Coeff-Com:  0.100D+01
 Coeff-En:   0.100D+01
 Coeff:      0.100D+01
 Gap=     0.295 Goal=   None    Shift=    0.000
 Gap=     0.181 Goal=   None    Shift=    0.000
 GapD=    0.181 DampG=1.000 DampE=0.500 DampFc=0.5000 IDamp=-1.
 Damping current iteration by 5.00D-01
 RMSDP=3.01D-03 MaxDP=4.97D-02              OVMax= 4.23D-02

 Cycle   2  Pass 0  IDiag  1:
 E= -78.2168713038561     Delta-E=       -0.006134406640 Rises=F Damp=T
 DIIS: error= 8.72D-03 at cycle   2 NSaved=   2.
 NSaved= 2 IEnMin= 2 EnMin= -78.2168713038561     IErMin= 2 ErrMin= 8.72D-03
 ErrMax= 8.72D-03 EMaxC= 1.00D-01 BMatC= 8.69D-03 BMatP= 6.26D-02
 IDIUse=3 WtCom= 9.13D-01 WtEn= 8.72D-02
 Coeff-Com: -0.372D+00 0.137D+01
 Coeff-En:   0.000D+00 0.100D+01
 Coeff:     -0.340D+00 0.134D+01
 Gap=     0.297 Goal=   None    Shift=    0.000
 Gap=     0.169 Goal=   None    Shift=    0.000
 RMSDP=1.38D-03 MaxDP=1.99D-02 DE=-6.13D-03 OVMax= 2.30D-02

 Cycle   3  Pass 0  IDiag  1:
 E= -78.2223524813988     Delta-E=       -0.005481177543 Rises=F Damp=F
 DIIS: error= 3.94D-03 at cycle   3 NSaved=   3.
 NSaved= 3 IEnMin= 3 EnMin= -78.2223524813988     IErMin= 3 ErrMin= 3.94D-03
 ErrMax= 3.94D-03 EMaxC= 1.00D-01 BMatC= 1.06D-03 BMatP= 8.69D-03
 IDIUse=3 WtCom= 9.61D-01 WtEn= 3.94D-02
 Coeff-Com: -0.194D+00 0.410D+00 0.783D+00
 Coeff-En:   0.000D+00 0.000D+00 0.100D+01
 Coeff:     -0.186D+00 0.394D+00 0.792D+00
 Gap=     0.296 Goal=   None    Shift=    0.000
 Gap=     0.174 Goal=   None    Shift=    0.000
 RMSDP=2.60D-04 MaxDP=3.97D-03 DE=-5.48D-03 OVMax= 6.45D-03

 Cycle   4  Pass 0  IDiag  1:
 E= -78.2226294793613     Delta-E=       -0.000276997963 Rises=F Damp=F
 DIIS: error= 4.24D-04 at cycle   4 NSaved=   4.
 NSaved= 4 IEnMin= 4 EnMin= -78.2226294793613     IErMin= 4 ErrMin= 4.24D-04
 ErrMax= 4.24D-04 EMaxC= 1.00D-01 BMatC= 1.23D-05 BMatP= 1.06D-03
 IDIUse=3 WtCom= 9.96D-01 WtEn= 4.24D-03
 Coeff-Com: -0.219D-01 0.368D-01 0.145D+00 0.840D+00
 Coeff-En:   0.000D+00 0.000D+00 0.000D+00 0.100D+01
 Coeff:     -0.218D-01 0.366D-01 0.145D+00 0.840D+00
 Gap=     0.296 Goal=   None    Shift=    0.000
 Gap=     0.174 Goal=   None    Shift=    0.000
 RMSDP=3.61D-05 MaxDP=4.59D-04 DE=-2.77D-04 OVMax= 8.00D-04

 Cycle   5  Pass 0  IDiag  1:
 E= -78.2226331062393     Delta-E=       -0.000003626878 Rises=F Damp=F
 DIIS: error= 7.11D-05 at cycle   5 NSaved=   5.
 NSaved= 5 IEnMin= 5 EnMin= -78.2226331062393     IErMin= 5 ErrMin= 7.11D-05
 ErrMax= 7.11D-05 EMaxC= 1.00D-01 BMatC= 4.79D-07 BMatP= 1.23D-05
 IDIUse=1 WtCom= 1.00D+00 WtEn= 0.00D+00
 Coeff-Com:  0.135D-01-0.271D-01-0.612D-01-0.140D+00 0.121D+01
 Coeff:      0.135D-01-0.271D-01-0.612D-01-0.140D+00 0.121D+01
 Gap=     0.296 Goal=   None    Shift=    0.000
 Gap=     0.174 Goal=   None    Shift=    0.000
 RMSDP=1.32D-05 MaxDP=1.45D-04 DE=-3.63D-06 OVMax= 2.49D-04

 Cycle   6  Pass 0  IDiag  1:
 E= -78.2226334192119     Delta-E=       -0.000000312973 Rises=F Damp=F
 DIIS: error= 1.51D-05 at cycle   6 NSaved=   6.
 NSaved= 6 IEnMin= 6 EnMin= -78.2226334192119     IErMin= 6 ErrMin= 1.51D-05
 ErrMax= 1.51D-05 EMaxC= 1.00D-01 BMatC= 1.49D-08 BMatP= 4.79D-07
 IDIUse=1 WtCom= 1.00D+00 WtEn= 0.00D+00
 Coeff-Com: -0.875D-03 0.215D-02 0.113D-02-0.150D-01-0.175D+00 0.119D+01
 Coeff:     -0.875D-03 0.215D-02 0.113D-02-0.150D-01-0.175D+00 0.119D+01
 Gap=     0.296 Goal=   None    Shift=    0.000
 Gap=     0.174 Goal=   None    Shift=    0.000
 RMSDP=2.50D-06 MaxDP=2.72D-05 DE=-3.13D-07 OVMax= 4.97D-05

 Initial convergence to 1.0D-05 achieved.  Increase integral accuracy.
 Cycle   7  Pass 1  IDiag  1:
 E= -78.2226545511470     Delta-E=       -0.000021131935 Rises=F Damp=F
 DIIS: error= 5.39D-06 at cycle   1 NSaved=   1.
 NSaved= 1 IEnMin= 1 EnMin= -78.2226545511470     IErMin= 1 ErrMin= 5.39D-06
 ErrMax= 5.39D-06 EMaxC= 1.00D-01 BMatC= 2.14D-09 BMatP= 2.14D-09
 IDIUse=1 WtCom= 1.00D+00 WtEn= 0.00D+00
 Coeff-Com:  0.100D+01
 Coeff:      0.100D+01
 Gap=     0.296 Goal=   None    Shift=    0.000
 Gap=     0.174 Goal=   None    Shift=    0.000
 RMSDP=2.50D-06 MaxDP=2.72D-05 DE=-2.11D-05 OVMax= 1.62D-05

 Cycle   8  Pass 1  IDiag  1:
 E= -78.2226545518167     Delta-E=       -0.000000000670 Rises=F Damp=F
 DIIS: error= 9.21D-07 at cycle   2 NSaved=   2.
 NSaved= 2 IEnMin= 2 EnMin= -78.2226545518167     IErMin= 2 ErrMin= 9.21D-07
 ErrMax= 9.21D-07 EMaxC= 1.00D-01 BMatC= 6.55D-11 BMatP= 2.14D-09
 IDIUse=1 WtCom= 1.00D+00 WtEn= 0.00D+00
 Coeff-Com: -0.181D-02 0.100D+01
 Coeff:     -0.181D-02 0.100D+01
 Gap=     0.296 Goal=   None    Shift=    0.000
 Gap=     0.174 Goal=   None    Shift=    0.000
 RMSDP=1.05D-07 MaxDP=1.62D-06 DE=-6.70D-10 OVMax= 2.83D-06

 Cycle   9  Pass 1  IDiag  1:
 E= -78.2226545518282     Delta-E=       -0.000000000011 Rises=F Damp=F
 DIIS: error= 6.75D-07 at cycle   3 NSaved=   3.
 NSaved= 3 IEnMin= 3 EnMin= -78.2226545518282     IErMin= 3 ErrMin= 6.75D-07
 ErrMax= 6.75D-07 EMaxC= 1.00D-01 BMatC= 3.60D-11 BMatP= 6.55D-11
 IDIUse=1 WtCom= 1.00D+00 WtEn= 0.00D+00
 Coeff-Com: -0.288D-01 0.431D+00 0.598D+00
 Coeff:     -0.288D-01 0.431D+00 0.598D+00
 Gap=     0.296 Goal=   None    Shift=    0.000
 Gap=     0.174 Goal=   None    Shift=    0.000
 RMSDP=4.76D-08 MaxDP=7.81D-07 DE=-1.15D-11 OVMax= 9.58D-07

 Cycle  10  Pass 1  IDiag  1:
 E= -78.2226545518377     Delta-E=       -0.000000000009 Rises=F Damp=F
 DIIS: error= 7.76D-08 at cycle   4 NSaved=   4.
 NSaved= 4 IEnMin= 4 EnMin= -78.2226545518377     IErMin= 4 ErrMin= 7.76D-08
 ErrMax= 7.76D-08 EMaxC= 1.00D-01 BMatC= 3.40D-13 BMatP= 3.60D-11
 IDIUse=1 WtCom= 1.00D+00 WtEn= 0.00D+00
 Coeff-Com:  0.491D-02-0.111D+00-0.696D-01 0.118D+01
 Coeff:      0.491D-02-0.111D+00-0.696D-01 0.118D+01
 Gap=     0.296 Goal=   None    Shift=    0.000
 Gap=     0.174 Goal=   None    Shift=    0.000
 RMSDP=8.98D-09 MaxDP=1.00D-07 DE=-9.49D-12 OVMax= 2.28D-07

 SCF Done:  E(UB3LYP) =  -78.2226545518     A.U. after   10 cycles
             Convg  =    0.8981D-08             -V/T =  2.0009
 <Sx>= 0.0000 <Sy>= 0.0000 <Sz>= 0.5000 <S**2>= 0.7517 S= 0.5009
 <L.S>= 0.000000000000E+00
 KE= 7.815562367941D+01 PE=-2.431237848685D+02 EE= 5.343162580597D+01
 Annihilation of the first spin contaminant:
 S**2 before annihilation     0.7517,   after     0.7500
 Leave Link  502 at Wed Apr 15 21:46:28 2015, MaxMem= 2013265920 cpu:    1535.3
 (Enter /opt/g09/l601.exe)
 Copying SCF densities to generalized density rwf, IOpCl= 1 IROHF=0.

 **********************************************************************

            Population analysis using the SCF density.

 **********************************************************************

 Orbital symmetries:
 Alpha Orbitals:
       Occupied  (AG) (B1U) (AG) (B1U) (B2U) (AG) (B3G) (B3U)
       Virtual   (B2G) (AG) (B2U) (B1U) (B3G) (B1U) (AG) (B2U)
                 (AG) (B3U) (B1U) (B2G) (B2U) (B3G) (B1U) (AG)
                 (B1U) (B3G) (B1G) (B3U) (B2U) (AG) (AU) (B1U)
                 (AG) (B3G) (B2G) (B1U) (AG) (B2U) (B1U) (B3U)
                 (B3G) (B2G) (AG) (B2U) (B3G) (B1U) (AG) (B1U)
 Beta  Orbitals:
       Occupied  (AG) (B1U) (AG) (B1U) (B2U) (AG) (B3G)
       Virtual   (B3U) (B2G) (AG) (B2U) (B1U) (B3G) (B1U) (AG)
                 (B2U) (AG) (B3U) (B1U) (B2G) (B2U) (B3G) (B1U)
                 (AG) (B1U) (B3G) (B1G) (B3U) (B2U) (AG) (AU) (B1U)
                 (AG) (B3G) (B2G) (B1U) (AG) (B2U) (B1U) (B3U)
                 (B3G) (B2G) (AG) (B2U) (B3G) (B1U) (AG) (B1U)
 The electronic state is 2-B3U.
 Alpha  occ. eigenvalues --  -10.52586 -10.52515  -1.11557  -0.89929  -0.79448
 Alpha  occ. eigenvalues --   -0.74277  -0.67113  -0.63192
 Alpha virt. eigenvalues --   -0.33597  -0.16316  -0.13698  -0.12331  -0.04751
 Alpha virt. eigenvalues --    0.02479   0.05149   0.06031   0.09916   0.11404
 Alpha virt. eigenvalues --    0.13426   0.21302   0.32361   0.34725   0.40364
 Alpha virt. eigenvalues --    0.41375   0.51097   0.52580   0.80108   0.82342
 Alpha virt. eigenvalues --    1.07827   1.08118   1.10121   1.32032   1.33527
 Alpha virt. eigenvalues --    1.56761   1.59722   1.81135   1.89833   2.02550
 Alpha virt. eigenvalues --    2.10795   2.22489   2.34217   2.45017   2.78855
 Alpha virt. eigenvalues --    2.82527   2.98897   3.37150  22.92291  23.74037
  Beta  occ. eigenvalues --  -10.51834 -10.51769  -1.08025  -0.88333  -0.78711
  Beta  occ. eigenvalues --   -0.73283  -0.66723
  Beta virt. eigenvalues --   -0.49306  -0.27169  -0.15957  -0.13483  -0.11699
  Beta virt. eigenvalues --   -0.04592   0.02968   0.05503   0.06222   0.11659
  Beta virt. eigenvalues --    0.14678   0.15352   0.24396   0.32786   0.35220
  Beta virt. eigenvalues --    0.41115   0.42633   0.52783   0.52818   0.83862
  Beta virt. eigenvalues --    0.86697   1.08186   1.11519   1.13431   1.34538
  Beta virt. eigenvalues --    1.35618   1.57017   1.63421   1.83063   1.89801
  Beta virt. eigenvalues --    2.02763   2.11259   2.26895   2.34692   2.49825
  Beta virt. eigenvalues --    2.80298   2.83117   2.99375   3.38693  22.93205
  Beta virt. eigenvalues --   23.75019
          Condensed to atoms (all electrons):
              1          2          3          4          5          6
     1  C    5.126369   0.395007   0.367541   0.367541  -0.032577  -0.032577
     2  C    0.395007   5.126369  -0.032577  -0.032577   0.367541   0.367541
     3  H    0.367541  -0.032577   0.330861  -0.010755   0.002206  -0.002928
     4  H    0.367541  -0.032577  -0.010755   0.330861  -0.002928   0.002206
     5  H   -0.032577   0.367541   0.002206  -0.002928   0.330861  -0.010755
     6  H   -0.032577   0.367541  -0.002928   0.002206  -0.010755   0.330861
 Mulliken atomic charges:
              1
     1  C   -0.191304
     2  C   -0.191304
     3  H    0.345652
     4  H    0.345652
     5  H    0.345652
     6  H    0.345652
 Sum of Mulliken atomic charges =   1.00000
 Mulliken charges with hydrogens summed into heavy atoms:
              1
     1  C    0.500000
     2  C    0.500000
 Sum of Mulliken charges with hydrogens summed into heavy atoms =   1.00000
          Atomic-Atomic Spin Densities.
              1          2          3          4          5          6
     1  C    0.453219   0.102815  -0.005623  -0.005623  -0.000749  -0.000749
     2  C    0.102815   0.453219  -0.000749  -0.000749  -0.005623  -0.005623
     3  H   -0.005623  -0.000749  -0.016591   0.001085  -0.000147   0.000380
     4  H   -0.005623  -0.000749   0.001085  -0.016591   0.000380  -0.000147
     5  H   -0.000749  -0.005623  -0.000147   0.000380  -0.016591   0.001085
     6  H   -0.000749  -0.005623   0.000380  -0.000147   0.001085  -0.016591
 Mulliken atomic spin densities:
              1
     1  C    0.543291
     2  C    0.543291
     3  H   -0.021646
     4  H   -0.021646
     5  H   -0.021646
     6  H   -0.021646
 Sum of Mulliken atomic spin densities =   1.00000
 Electronic spatial extent (au):  <R**2>=             72.2143
 Charge=              1.0000 electrons
 Dipole moment (field-independent basis, Debye):
    X=              0.0000    Y=              0.0000    Z=              0.0000  Tot=              0.0000
 Quadrupole moment (field-independent basis, Debye-Ang):
   XX=            -11.3204   YY=             -8.3832   ZZ=             -6.2148
   XY=              0.0000   XZ=              0.0000   YZ=              0.0000
 Traceless Quadrupole moment (field-independent basis, Debye-Ang):
   XX=             -2.6810   YY=              0.2563   ZZ=              2.4246
   XY=              0.0000   XZ=              0.0000   YZ=              0.0000
 Octapole moment (field-independent basis, Debye-Ang**2):
  XXX=              0.0000  YYY=              0.0000  ZZZ=              0.0000  XYY=              0.0000
  XXY=              0.0000  XXZ=              0.0000  XZZ=              0.0000  YZZ=              0.0000
  YYZ=              0.0000  XYZ=              0.0000
 Hexadecapole moment (field-independent basis, Debye-Ang**3):
 XXXX=            -10.2306 YYYY=            -17.6379 ZZZZ=            -49.9909 XXXY=              0.0000
 XXXZ=              0.0000 YYYX=              0.0000 YYYZ=              0.0000 ZZZX=              0.0000
 ZZZY=              0.0000 XXYY=             -5.6340 XXZZ=            -11.2067 YYZZ=             -6.7509
 XXYZ=              0.0000 YYXZ=              0.0000 ZZXY=              0.0000
 N-N= 3.331388083133D+01 E-N=-3.604874874450D+02  KE= 1.166251208739D+02
 Symmetry AG   KE= 5.678301911563D+01
 Symmetry B1G  KE= 5.321576458473D-34
 Symmetry B2G  KE= 2.907802754643D-32
 Symmetry B3G  KE= 3.511374204910D+00
 Symmetry AU   KE= 6.266070770583D-34
 Symmetry B1U  KE= 5.206552338963D+01
 Symmetry B2U  KE= 3.101623089888D+00
 Symmetry B3U  KE= 1.163581073881D+00
                          Isotropic Fermi Contact Couplings
        Atom                 a.u.       MegaHertz       Gauss      10(-4) cm-1
     1  C(13)              0.01708      19.19899       6.85068       6.40409
     2  C(13)              0.01708      19.19899       6.85068       6.40409
     3  H(1)              -0.00771     -34.45043     -12.29277     -11.49143
     4  H(1)              -0.00771     -34.45043     -12.29277     -11.49143
     5  H(1)              -0.00771     -34.45043     -12.29277     -11.49143
     6  H(1)              -0.00771     -34.45043     -12.29277     -11.49143
 --------------------------------------------------------
       Center         ----  Spin Dipole Couplings  ----
                      3XX-RR        3YY-RR        3ZZ-RR
 --------------------------------------------------------
     1   Atom        0.618186     -0.324363     -0.293823
     2   Atom        0.618186     -0.324363     -0.293823
     3   Atom       -0.012064      0.015350     -0.003286
     4   Atom       -0.012064      0.015350     -0.003286
     5   Atom       -0.012064      0.015350     -0.003286
     6   Atom       -0.012064      0.015350     -0.003286
 --------------------------------------------------------
                        XY            XZ            YZ
 --------------------------------------------------------
     1   Atom        0.000000      0.000000      0.000000
     2   Atom        0.000000      0.000000      0.000000
     3   Atom        0.000000      0.000000      0.045847
     4   Atom        0.000000      0.000000     -0.045847
     5   Atom        0.000000      0.000000      0.045847
     6   Atom        0.000000      0.000000     -0.045847
 --------------------------------------------------------


 ---------------------------------------------------------------------------------
              Anisotropic Spin Dipole Couplings in Principal Axis System
 ---------------------------------------------------------------------------------

       Atom             a.u.   MegaHertz   Gauss  10(-4) cm-1        Axes

              Baa    -0.3244   -43.526   -15.531   -14.519  0.0000  1.0000  0.0000
     1 C(13)  Bbb    -0.2938   -39.428   -14.069   -13.152  0.0000  0.0000  1.0000
              Bcc     0.6182    82.955    29.600    27.671  1.0000  0.0000  0.0000
 
              Baa    -0.3244   -43.526   -15.531   -14.519  0.0000  1.0000  0.0000
     2 C(13)  Bbb    -0.2938   -39.428   -14.069   -13.152  0.0000  0.0000  1.0000
              Bcc     0.6182    82.955    29.600    27.671  1.0000  0.0000  0.0000
 
              Baa    -0.0408   -21.743    -7.759    -7.253  0.0000 -0.6328  0.7743
     3 H(1)   Bbb    -0.0121    -6.437    -2.297    -2.147  1.0000  0.0000  0.0000
              Bcc     0.0528    28.180    10.055     9.400  0.0000  0.7743  0.6328
 
              Baa    -0.0408   -21.743    -7.759    -7.253  0.0000  0.6328  0.7743
     4 H(1)   Bbb    -0.0121    -6.437    -2.297    -2.147  1.0000  0.0000  0.0000
              Bcc     0.0528    28.180    10.055     9.400  0.0000  0.7743 -0.6328
 
              Baa    -0.0408   -21.743    -7.759    -7.253  0.0000 -0.6328  0.7743
     5 H(1)   Bbb    -0.0121    -6.437    -2.297    -2.147  1.0000  0.0000  0.0000
              Bcc     0.0528    28.180    10.055     9.400  0.0000  0.7743  0.6328
 
              Baa    -0.0408   -21.743    -7.759    -7.253  0.0000  0.6328  0.7743
     6 H(1)   Bbb    -0.0121    -6.437    -2.297    -2.147  1.0000  0.0000  0.0000
              Bcc     0.0528    28.180    10.055     9.400  0.0000  0.7743 -0.6328
 

 ---------------------------------------------------------------------------------

 No NMR shielding tensors so no spin-rotation constants.
 Leave Link  601 at Wed Apr 15 21:46:38 2015, MaxMem= 2013265920 cpu:      60.2
 (Enter /opt/g09/l701.exe)
 Compute integral first derivatives.
 ... and contract with generalized density number  0.
 Leave Link  701 at Wed Apr 15 21:46:43 2015, MaxMem= 2013265920 cpu:      30.3
 (Enter /opt/g09/l702.exe)
 L702 exits ... SP integral derivatives will be done elsewhere.
 Leave Link  702 at Wed Apr 15 21:46:43 2015, MaxMem= 2013265920 cpu:       0.7
 (Enter /opt/g09/l703.exe)
 Compute integral first derivatives, UseDBF=F ICtDFT=           0.
 Integral derivatives from FoFDir, PRISM(SPDF).
 Calling FoFJK, ICntrl=      2127 FMM=F ISym2X=1 I1Cent= 0 IOpClX= 1 NMat=1 NMatS=1 NMatT=0.
 FoFCou: FMM=F IPFlag=           0 FMFlag=      100000 FMFlg1=         800
         NFxFlg=           0 DoJE=F BraDBF=F KetDBF=F FulRan=T
         Omega=  0.000000  0.000000  1.000000  0.000000  0.000000 ICntrl=    2127 IOpCl=  1
         NMat0=    1 NMatS0=    1 NMatT0=    0 NMatD0=    1 NMtDS0=    0 NMtDT0=    0
         I1Cent=           0 NGrid=           0.
 Petite list used in FoFCou.
 Leave Link  703 at Wed Apr 15 21:46:51 2015, MaxMem= 2013265920 cpu:      47.4
 (Enter /opt/g09/l716.exe)
 Dipole        =-4.89213169D-17 2.22044605D-16 0.00000000D+00
 ***** Axes restored to original set *****
 -------------------------------------------------------------------
 Center     Atomic                   Forces (Hartrees/Bohr)
 Number     Number              X              Y              Z
 -------------------------------------------------------------------
      1        6          -0.046518657    0.000000000    0.000000000
      2        6           0.046518657    0.000000000    0.000000000
      3        1          -0.010091024    0.008615433    0.000000000
      4        1          -0.010091024   -0.008615433    0.000000000
      5        1           0.010091024   -0.008615433    0.000000000
      6        1           0.010091024    0.008615433    0.000000000
 -------------------------------------------------------------------
 Cartesian Forces:  Max     0.046518657 RMS     0.016720228
 Leave Link  716 at Wed Apr 15 21:46:51 2015, MaxMem= 2013265920 cpu:       0.8
 (Enter /opt/g09/l103.exe)

 GradGradGradGradGradGradGradGradGradGradGradGradGradGradGradGradGradGrad
 Berny optimization.
 Internal  Forces:  Max     0.066700704 RMS     0.018586199
 Search for a local minimum.
 Step number   1 out of a maximum of   25
 All quantities printed in internal units (Hartrees-Bohrs-Radians)
 RMS Force = .18586D-01 SwitMx=.10000D-02 MixMth= 1
 Mixed Optimization -- RFO/linear search
 Second derivative matrix not updated -- first step.
 The second derivative matrix:
                          R1        R2        R3        R4        R5
           R1           0.53930
           R2           0.00000   0.37230
           R3           0.00000   0.00000   0.37230
           R4           0.00000   0.00000   0.00000   0.37230
           R5           0.00000   0.00000   0.00000   0.00000   0.37230
           A1           0.00000   0.00000   0.00000   0.00000   0.00000
           A2           0.00000   0.00000   0.00000   0.00000   0.00000
           A3           0.00000   0.00000   0.00000   0.00000   0.00000
           A4           0.00000   0.00000   0.00000   0.00000   0.00000
           A5           0.00000   0.00000   0.00000   0.00000   0.00000
           A6           0.00000   0.00000   0.00000   0.00000   0.00000
           D1           0.00000   0.00000   0.00000   0.00000   0.00000
           D2           0.00000   0.00000   0.00000   0.00000   0.00000
           D3           0.00000   0.00000   0.00000   0.00000   0.00000
           D4           0.00000   0.00000   0.00000   0.00000   0.00000
                          A1        A2        A3        A4        A5
           A1           0.16000
           A2           0.00000   0.16000
           A3           0.00000   0.00000   0.16000
           A4           0.00000   0.00000   0.00000   0.16000
           A5           0.00000   0.00000   0.00000   0.00000   0.16000
           A6           0.00000   0.00000   0.00000   0.00000   0.00000
           D1           0.00000   0.00000   0.00000   0.00000   0.00000
           D2           0.00000   0.00000   0.00000   0.00000   0.00000
           D3           0.00000   0.00000   0.00000   0.00000   0.00000
           D4           0.00000   0.00000   0.00000   0.00000   0.00000
                          A6        D1        D2        D3        D4
           A6           0.16000
           D1           0.00000   0.02681
           D2           0.00000   0.00000   0.02681
           D3           0.00000   0.00000   0.00000   0.02681
           D4           0.00000   0.00000   0.00000   0.00000   0.02681
     Eigenvalues ---    0.02681   0.02681   0.02681   0.16000   0.16000
     Eigenvalues ---    0.16000   0.16000   0.37230   0.37230   0.37230
     Eigenvalues ---    0.37230   0.539301000.000001000.000001000.00000
 RFO step:  Lambda=-1.03575738D-02 EMin= 2.68137385D-02
 Linear search not attempted -- first point.
 Iteration  1 RMS(Cart)=  0.06012386 RMS(Int)=  0.00029652
 Iteration  2 RMS(Cart)=  0.00033704 RMS(Int)=  0.00000006
 Iteration  3 RMS(Cart)=  0.00000006 RMS(Int)=  0.00000000
 ClnCor:  largest displacement from symmetrization is 8.36D-14 for atom     5.
 Variable       Old X    -DE/DX   Delta X   Delta X   Delta X     New X
                                 (Linear)    (Quad)   (Total)
    R1        2.56096   0.06670   0.00000   0.12135   0.12135   2.68231
    R2        2.02201   0.01251   0.00000   0.03268   0.03268   2.05469
    R3        2.02201   0.01251   0.00000   0.03268   0.03268   2.05469
    R4        2.02201   0.01251   0.00000   0.03268   0.03268   2.05469
    R5        2.02201   0.01251   0.00000   0.03268   0.03268   2.05469
    A1        2.09440   0.00299   0.00000   0.01753   0.01753   2.11193
    A2        2.09440   0.00299   0.00000   0.01753   0.01753   2.11193
    A3        2.09440  -0.00597   0.00000  -0.03506  -0.03506   2.05933
    A4        2.09440   0.00299   0.00000   0.01753   0.01753   2.11193
    A5        2.09440   0.00299   0.00000   0.01753   0.01753   2.11193
    A6        2.09440  -0.00597   0.00000  -0.03506  -0.03506   2.05933
    D1        3.14159   0.00000   0.00000   0.00000   0.00000   3.14159
    D2        0.00000   0.00000   0.00000   0.00000   0.00000   0.00000
    D3        0.00000   0.00000   0.00000   0.00000   0.00000   0.00000
    D4        3.14159   0.00000   0.00000   0.00000   0.00000   3.14159
         Item               Value     Threshold  Converged?
 Maximum Force            0.066701     0.000450     NO 
 RMS     Force            0.018586     0.000300     NO 
 Maximum Displacement     0.108055     0.001800     NO 
 RMS     Displacement     0.060259     0.001200     NO 
 Predicted change in Energy=-5.296281D-03
 GradGradGradGradGradGradGradGradGradGradGradGradGradGradGradGradGradGrad

 Leave Link  103 at Wed Apr 15 21:46:56 2015, MaxMem= 2013265920 cpu:      26.1
 (Enter /opt/g09/l202.exe)
                          Input orientation:                          
 ---------------------------------------------------------------------
 Center     Atomic      Atomic             Coordinates (Angstroms)
 Number     Number       Type             X           Y           Z
 ---------------------------------------------------------------------
      1          6           0       -0.709708    0.000000    0.000000
      2          6           0        0.709708    0.000000    0.000000
      3          1           0       -1.269780    0.931950    0.000000
      4          1           0       -1.269780   -0.931950    0.000000
      5          1           0        1.269780   -0.931950    0.000000
      6          1           0        1.269780    0.931950    0.000000
 ---------------------------------------------------------------------
                    Distance matrix (angstroms):
                    1          2          3          4          5
     1  C    0.000000
     2  C    1.419416   0.000000
     3  H    1.087295   2.187899   0.000000
     4  H    1.087295   2.187899   1.863900   0.000000
     5  H    2.187899   1.087295   3.150157   2.539560   0.000000
     6  H    2.187899   1.087295   2.539560   3.150157   1.863900
                    6
     6  H    0.000000
 Stoichiometry    C2H4(1+,2)
 Framework group  D2H[C2"(C.C),SG(H4)]
 Deg. of freedom     3
 Full point group                 D2H     NOp   8
 Largest Abelian subgroup         D2H     NOp   8
 Largest concise Abelian subgroup D2      NOp   4
                         Standard orientation:                         
 ---------------------------------------------------------------------
 Center     Atomic      Atomic             Coordinates (Angstroms)
 Number     Number       Type             X           Y           Z
 ---------------------------------------------------------------------
      1          6           0        0.000000    0.000000    0.709708
      2          6           0        0.000000    0.000000   -0.709708
      3          1           0        0.000000    0.931950    1.269780
      4          1           0        0.000000   -0.931950    1.269780
      5          1           0        0.000000   -0.931950   -1.269780
      6          1           0        0.000000    0.931950   -1.269780
 ---------------------------------------------------------------------
 Rotational constants (GHZ):    144.3400766     27.1880481     22.8786093
 Leave Link  202 at Wed Apr 15 21:46:56 2015, MaxMem= 2013265920 cpu:       2.4
 (Enter /opt/g09/l301.exe)
 Standard basis: 6-311G(d) (5D, 7F)
 Ernie: Thresh=  0.10000D-02 Tol=  0.10000D-05 Strict=F.
 There are    12 symmetry adapted basis functions of AG  symmetry.
 There are     1 symmetry adapted basis functions of B1G symmetry.
 There are     4 symmetry adapted basis functions of B2G symmetry.
 There are     7 symmetry adapted basis functions of B3G symmetry.
 There are     1 symmetry adapted basis functions of AU  symmetry.
 There are    12 symmetry adapted basis functions of B1U symmetry.
 There are     7 symmetry adapted basis functions of B2U symmetry.
 There are     4 symmetry adapted basis functions of B3U symmetry.
 Integral buffers will be    131072 words long.
 Raffenetti 2 integral format.
 Two-electron integral symmetry is turned on.
    48 basis functions,    84 primitive gaussians,    50 cartesian basis functions
     8 alpha electrons        7 beta electrons
       nuclear repulsion energy        32.2271765016 Hartrees.
 IExCor=  402 DFT=T Ex+Corr=B3LYP ExCW=0 ScaHFX=  0.200000
 ScaDFX=  0.800000  0.720000  1.000000  0.810000 ScalE2=  1.000000  1.000000
 IRadAn=      0 IRanWt=     -1 IRanGd=            0 ICorTp=0
 NAtoms=    6 NActive=    6 NUniq=    2 SFac= 3.00D+00 NAtFMM=   80 NAOKFM=F Big=F
 Leave Link  301 at Wed Apr 15 21:46:57 2015, MaxMem= 2013265920 cpu:       1.2
 (Enter /opt/g09/l302.exe)
 NPDir=0 NMtPBC=     1 NCelOv=     1 NCel=       1 NClECP=     1 NCelD=      1
         NCelK=      1 NCelE2=     1 NClLst=     1 CellRange=     0.0.
 One-electron integrals computed using PRISM.
 One-electron integral symmetry used in STVInt
 NBasis=    48 RedAO= T  NBF=    12     1     4     7     1    12     7     4
 NBsUse=    48 1.00D-06 NBFU=    12     1     4     7     1    12     7     4
 Precomputing XC quadrature grid using
 IXCGrd= 2 IRadAn=           0 IRanWt=          -1 IRanGd=           0 AccXCQ= 1.00D-10.
 NRdTot=     374 NPtTot=       47012 NUsed=       49721 NTot=       49753
 NSgBfM=    50    50    50    50    50 NAtAll=     6     6.
 Leave Link  302 at Wed Apr 15 21:47:07 2015, MaxMem= 2013265920 cpu:      64.8
 (Enter /opt/g09/l303.exe)
 DipDrv:  MaxL=1.
 Leave Link  303 at Wed Apr 15 21:47:09 2015, MaxMem= 2013265920 cpu:       7.5
 (Enter /opt/g09/l401.exe)
 Initial guess read from the read-write file.
 B after Tr=     0.000000    0.000000    0.000000
         Rot=    1.000000    0.000000    0.000000    0.000000 Ang=   0.00 deg.
 Guess basis will be translated and rotated to current coordinates.
 Initial guess orbital symmetries:
 Alpha Orbitals:
       Occupied  (AG) (B1U) (AG) (B1U) (B2U) (AG) (B3G) (B3U)
       Virtual   (B2G) (AG) (B2U) (B1U) (B3G) (B1U) (AG) (B2U)
                 (AG) (B3U) (B1U) (B2G) (B2U) (B3G) (B1U) (AG)
                 (B1U) (B3G) (B1G) (B3U) (B2U) (AG) (AU) (B1U)
                 (AG) (B3G) (B2G) (B1U) (AG) (B2U) (B1U) (B3U)
                 (B3G) (B2G) (AG) (B2U) (B3G) (B1U) (AG) (B1U)
 Beta  Orbitals:
       Occupied  (AG) (B1U) (AG) (B1U) (B2U) (AG) (B3G)
       Virtual   (B3U) (B2G) (AG) (B2U) (B1U) (B3G) (B1U) (AG)
                 (B2U) (AG) (B3U) (B1U) (B2G) (B2U) (B3G) (B1U)
                 (AG) (B1U) (B3G) (B1G) (B3U) (B2U) (AG) (AU) (B1U)
                 (AG) (B3G) (B2G) (B1U) (AG) (B2U) (B1U) (B3U)
                 (B3G) (B2G) (AG) (B2U) (B3G) (B1U) (AG) (B1U)
 The electronic state of the initial guess is 2-B3U.
 Initial guess <Sx>= 0.0000 <Sy>= 0.0000 <Sz>= 0.5000 <S**2>= 0.7518 S= 0.5009
 Generating alternative initial guess.
 Harris functional with IExCor=  402 diagonalized for initial guess.
 ExpMin= 1.03D-01 ExpMax= 4.56D+03 ExpMxC= 6.82D+02 IAcc=1 IRadAn=         1 AccDes= 0.00D+00
 HarFok:  IExCor=  402 AccDes= 0.00D+00 IRadAn=         1 IDoV= 1
 ScaDFX=  1.000000  1.000000  1.000000  1.000000
 FoFCou: FMM=F IPFlag=           0 FMFlag=      100000 FMFlg1=           0
         NFxFlg=           0 DoJE=T BraDBF=F KetDBF=T FulRan=T
         Omega=  0.000000  0.000000  1.000000  0.000000  0.000000 ICntrl=     500 IOpCl=  0
         NMat0=    1 NMatS0=    1 NMatT0=    0 NMatD0=    1 NMtDS0=    0 NMtDT0=    0
         I1Cent=           4 NGrid=           0.
 Petite list used in FoFCou.
 Harris En= -78.2876580874849    
 Leave Link  401 at Wed Apr 15 21:47:22 2015, MaxMem= 2013265920 cpu:      85.5
 (Enter /opt/g09/l502.exe)
 UHF open shell SCF:
 Requested convergence on RMS density matrix=1.00D-08 within 128 cycles.
 Requested convergence on MAX density matrix=1.00D-06.
 Requested convergence on             energy=1.00D-06.
 No special actions if energy rises.
 Using DIIS extrapolation, IDIIS=  1040.
 Integral symmetry usage will be decided dynamically.
        49654 words used for storage of precomputed grid.
 Keep R1 and R2 ints in memory in canonical form, NReq=2571891.
 IEnd=       77180 IEndB=       77180 NGot=  2013265920 MDV=  2011581003
 LenX=  2011581003 LenY=  2011578062
 Symmetry not used in FoFDir.
 MinBra= 0 MaxBra= 2 Meth= 1.
 IRaf=       0 NMat=   1 IRICut=       1 DoRegI=T DoRafI=F ISym2E= 0 JSym2E=0.
 Integral accuracy reduced to 1.0D-05 until final iterations.

 Cycle   1  Pass 0  IDiag  1:
 E= -78.2261718964597    
 DIIS: error= 5.65D-03 at cycle   1 NSaved=   1.
 NSaved= 1 IEnMin= 1 EnMin= -78.2261718964597     IErMin= 1 ErrMin= 5.65D-03
 ErrMax= 5.65D-03 EMaxC= 1.00D-01 BMatC= 5.89D-03 BMatP= 5.89D-03
 IDIUse=3 WtCom= 9.44D-01 WtEn= 5.65D-02
 Coeff-Com:  0.100D+01
 Coeff-En:   0.100D+01
 Coeff:      0.100D+01
 Gap=     0.270 Goal=   None    Shift=    0.000
 Gap=     0.188 Goal=   None    Shift=    0.000
 GapD=    0.188 DampG=1.000 DampE=1.000 DampFc=1.0000 IDamp=-1.
 RMSDP=7.03D-04 MaxDP=8.48D-03              OVMax= 1.67D-02

 Cycle   2  Pass 0  IDiag  1:
 E= -78.2271535727989     Delta-E=       -0.000981676339 Rises=F Damp=F
 DIIS: error= 3.67D-03 at cycle   2 NSaved=   2.
 NSaved= 2 IEnMin= 2 EnMin= -78.2271535727989     IErMin= 2 ErrMin= 3.67D-03
 ErrMax= 3.67D-03 EMaxC= 1.00D-01 BMatC= 1.07D-03 BMatP= 5.89D-03
 IDIUse=3 WtCom= 9.63D-01 WtEn= 3.67D-02
 Coeff-Com:  0.233D+00 0.767D+00
 Coeff-En:   0.000D+00 0.100D+01
 Coeff:      0.224D+00 0.776D+00
 Gap=     0.269 Goal=   None    Shift=    0.000
 Gap=     0.184 Goal=   None    Shift=    0.000
 RMSDP=3.42D-04 MaxDP=5.87D-03 DE=-9.82D-04 OVMax= 7.10D-03

 Cycle   3  Pass 0  IDiag  1:
 E= -78.2273735272801     Delta-E=       -0.000219954481 Rises=F Damp=F
 DIIS: error= 1.59D-03 at cycle   3 NSaved=   3.
 NSaved= 3 IEnMin= 3 EnMin= -78.2273735272801     IErMin= 3 ErrMin= 1.59D-03
 ErrMax= 1.59D-03 EMaxC= 1.00D-01 BMatC= 2.29D-04 BMatP= 1.07D-03
 IDIUse=3 WtCom= 9.84D-01 WtEn= 1.59D-02
 Coeff-Com: -0.608D-02 0.313D+00 0.693D+00
 Coeff-En:   0.000D+00 0.105D+00 0.895D+00
 Coeff:     -0.599D-02 0.309D+00 0.697D+00
 Gap=     0.269 Goal=   None    Shift=    0.000
 Gap=     0.185 Goal=   None    Shift=    0.000
 RMSDP=1.11D-04 MaxDP=1.64D-03 DE=-2.20D-04 OVMax= 2.44D-03

 Cycle   4  Pass 0  IDiag  1:
 E= -78.2274335947916     Delta-E=       -0.000060067511 Rises=F Damp=F
 DIIS: error= 3.35D-05 at cycle   4 NSaved=   4.
 NSaved= 4 IEnMin= 4 EnMin= -78.2274335947916     IErMin= 4 ErrMin= 3.35D-05
 ErrMax= 3.35D-05 EMaxC= 1.00D-01 BMatC= 1.24D-07 BMatP= 2.29D-04
 IDIUse=1 WtCom= 1.00D+00 WtEn= 0.00D+00
 Coeff-Com: -0.158D-02 0.142D-01 0.500D-01 0.937D+00
 Coeff:     -0.158D-02 0.142D-01 0.500D-01 0.937D+00
 Gap=     0.268 Goal=   None    Shift=    0.000
 Gap=     0.185 Goal=   None    Shift=    0.000
 RMSDP=3.05D-06 MaxDP=6.63D-05 DE=-6.01D-05 OVMax= 6.03D-05

 Initial convergence to 1.0D-05 achieved.  Increase integral accuracy.
 Cycle   5  Pass 1  IDiag  1:
 E= -78.2274480565949     Delta-E=       -0.000014461803 Rises=F Damp=F
 DIIS: error= 6.73D-06 at cycle   1 NSaved=   1.
 NSaved= 1 IEnMin= 1 EnMin= -78.2274480565949     IErMin= 1 ErrMin= 6.73D-06
 ErrMax= 6.73D-06 EMaxC= 1.00D-01 BMatC= 3.86D-09 BMatP= 3.86D-09
 IDIUse=1 WtCom= 1.00D+00 WtEn= 0.00D+00
 Coeff-Com:  0.100D+01
 Coeff:      0.100D+01
 Gap=     0.268 Goal=   None    Shift=    0.000
 Gap=     0.185 Goal=   None    Shift=    0.000
 RMSDP=3.05D-06 MaxDP=6.63D-05 DE=-1.45D-05 OVMax= 2.13D-05

 Cycle   6  Pass 1  IDiag  1:
 E= -78.2274480576554     Delta-E=       -0.000000001061 Rises=F Damp=F
 DIIS: error= 1.63D-06 at cycle   2 NSaved=   2.
 NSaved= 2 IEnMin= 2 EnMin= -78.2274480576554     IErMin= 2 ErrMin= 1.63D-06
 ErrMax= 1.63D-06 EMaxC= 1.00D-01 BMatC= 2.73D-10 BMatP= 3.86D-09
 IDIUse=1 WtCom= 1.00D+00 WtEn= 0.00D+00
 Coeff-Com:  0.166D+00 0.834D+00
 Coeff:      0.166D+00 0.834D+00
 Gap=     0.268 Goal=   None    Shift=    0.000
 Gap=     0.185 Goal=   None    Shift=    0.000
 RMSDP=1.88D-07 MaxDP=2.29D-06 DE=-1.06D-09 OVMax= 3.13D-06

 Cycle   7  Pass 1  IDiag  1:
 E= -78.2274480577177     Delta-E=       -0.000000000062 Rises=F Damp=F
 DIIS: error= 4.49D-07 at cycle   3 NSaved=   3.
 NSaved= 3 IEnMin= 3 EnMin= -78.2274480577177     IErMin= 3 ErrMin= 4.49D-07
 ErrMax= 4.49D-07 EMaxC= 1.00D-01 BMatC= 7.40D-12 BMatP= 2.73D-10
 IDIUse=1 WtCom= 1.00D+00 WtEn= 0.00D+00
 Coeff-Com: -0.159D-01 0.766D-01 0.939D+00
 Coeff:     -0.159D-01 0.766D-01 0.939D+00
 Gap=     0.268 Goal=   None    Shift=    0.000
 Gap=     0.185 Goal=   None    Shift=    0.000
 RMSDP=3.08D-08 MaxDP=5.38D-07 DE=-6.23D-11 OVMax= 1.07D-06

 Cycle   8  Pass 1  IDiag  1:
 E= -78.2274480577195     Delta-E=       -0.000000000002 Rises=F Damp=F
 DIIS: error= 1.48D-07 at cycle   4 NSaved=   4.
 NSaved= 4 IEnMin= 4 EnMin= -78.2274480577195     IErMin= 4 ErrMin= 1.48D-07
 ErrMax= 1.48D-07 EMaxC= 1.00D-01 BMatC= 1.43D-12 BMatP= 7.40D-12
 IDIUse=1 WtCom= 1.00D+00 WtEn= 0.00D+00
 Coeff-Com: -0.982D-02 0.140D-01 0.384D+00 0.612D+00
 Coeff:     -0.982D-02 0.140D-01 0.384D+00 0.612D+00
 Gap=     0.268 Goal=   None    Shift=    0.000
 Gap=     0.185 Goal=   None    Shift=    0.000
 RMSDP=9.45D-09 MaxDP=1.69D-07 DE=-1.80D-12 OVMax= 2.34D-07

 SCF Done:  E(UB3LYP) =  -78.2274480577     A.U. after    8 cycles
             Convg  =    0.9452D-08             -V/T =  2.0042
 <Sx>= 0.0000 <Sy>= 0.0000 <Sz>= 0.5000 <S**2>= 0.7518 S= 0.5009
 <L.S>= 0.000000000000E+00
 KE= 7.789932744855D+01 PE=-2.408325744971D+02 EE= 5.247862248921D+01
 Annihilation of the first spin contaminant:
 S**2 before annihilation     0.7518,   after     0.7500
 Leave Link  502 at Wed Apr 15 21:50:35 2015, MaxMem= 2013265920 cpu:    1273.5
 (Enter /opt/g09/l701.exe)
 Compute integral first derivatives.
 ... and contract with generalized density number  0.
 Leave Link  701 at Wed Apr 15 21:50:40 2015, MaxMem= 2013265920 cpu:      30.5
 (Enter /opt/g09/l702.exe)
 L702 exits ... SP integral derivatives will be done elsewhere.
 Leave Link  702 at Wed Apr 15 21:50:40 2015, MaxMem= 2013265920 cpu:       0.8
 (Enter /opt/g09/l703.exe)
 Compute integral first derivatives, UseDBF=F ICtDFT=           0.
 Integral derivatives from FoFDir, PRISM(SPDF).
 Calling FoFJK, ICntrl=      2127 FMM=F ISym2X=1 I1Cent= 0 IOpClX= 1 NMat=1 NMatS=1 NMatT=0.
 FoFCou: FMM=F IPFlag=           0 FMFlag=      100000 FMFlg1=         800
         NFxFlg=           0 DoJE=F BraDBF=F KetDBF=F FulRan=T
         Omega=  0.000000  0.000000  1.000000  0.000000  0.000000 ICntrl=    2127 IOpCl=  1
         NMat0=    1 NMatS0=    1 NMatT0=    0 NMatD0=    1 NMtDS0=    0 NMtDT0=    0
         I1Cent=           0 NGrid=           0.
 Petite list used in FoFCou.
 Leave Link  703 at Wed Apr 15 21:50:48 2015, MaxMem= 2013265920 cpu:      48.5
 (Enter /opt/g09/l716.exe)
 Dipole        =-4.76291893D-17 6.66133815D-16 0.00000000D+00
 ***** Axes restored to original set *****
 -------------------------------------------------------------------
 Center     Atomic                   Forces (Hartrees/Bohr)
 Number     Number              X              Y              Z
 -------------------------------------------------------------------
      1        6           0.000576869    0.000000000    0.000000000
      2        6          -0.000576869    0.000000000    0.000000000
      3        1           0.000483429    0.000189807    0.000000000
      4        1           0.000483429   -0.000189807    0.000000000
      5        1          -0.000483429   -0.000189807    0.000000000
      6        1          -0.000483429    0.000189807    0.000000000
 -------------------------------------------------------------------
 Cartesian Forces:  Max     0.000576869 RMS     0.000311312
 Leave Link  716 at Wed Apr 15 21:50:49 2015, MaxMem= 2013265920 cpu:       0.8
 (Enter /opt/g09/l103.exe)

 GradGradGradGradGradGradGradGradGradGradGradGradGradGradGradGradGradGrad
 Berny optimization.
 Using GEDIIS/GDIIS optimizer.
 Internal  Forces:  Max     0.001543727 RMS     0.000509200
 Search for a local minimum.
 Step number   2 out of a maximum of   25
 All quantities printed in internal units (Hartrees-Bohrs-Radians)
 RMS Force = .50920D-03 SwitMx=.10000D-02 MixMth= 2
 Mixed Optimization -- En-DIIS/RFO-DIIS
 Update second derivatives using D2CorX and points    1    2
 DE= -4.79D-03 DEPred=-5.30D-03 R= 9.05D-01
 SS=  1.41D+00  RLast= 1.51D-01 DXNew= 5.0454D-01 4.5187D-01
 Trust test= 9.05D-01 RLast= 1.51D-01 DXMaxT set to 4.52D-01
 The second derivative matrix:
                          R1        R2        R3        R4        R5
           R1           0.55432
           R2           0.00218   0.37259
           R3           0.00218   0.00029   0.37259
           R4           0.00218   0.00029   0.00029   0.37259
           R5           0.00218   0.00029   0.00029   0.00029   0.37259
           A1           0.00329   0.00058   0.00058   0.00058   0.00058
           A2           0.00329   0.00058   0.00058   0.00058   0.00058
           A3          -0.00658  -0.00116  -0.00116  -0.00116  -0.00116
           A4           0.00329   0.00058   0.00058   0.00058   0.00058
           A5           0.00329   0.00058   0.00058   0.00058   0.00058
           A6          -0.00658  -0.00116  -0.00116  -0.00116  -0.00116
           D1           0.00000   0.00000   0.00000   0.00000   0.00000
           D2           0.00000   0.00000   0.00000   0.00000   0.00000
           D3           0.00000   0.00000   0.00000   0.00000   0.00000
           D4           0.00000   0.00000   0.00000   0.00000   0.00000
                          A1        A2        A3        A4        A5
           A1           0.16027
           A2           0.00027   0.16027
           A3          -0.00054  -0.00054   0.16108
           A4           0.00027   0.00027  -0.00054   0.16027
           A5           0.00027   0.00027  -0.00054   0.00027   0.16027
           A6          -0.00054  -0.00054   0.00108  -0.00054  -0.00054
           D1           0.00000   0.00000   0.00000   0.00000   0.00000
           D2           0.00000   0.00000   0.00000   0.00000   0.00000
           D3           0.00000   0.00000   0.00000   0.00000   0.00000
           D4           0.00000   0.00000   0.00000   0.00000   0.00000
                          A6        D1        D2        D3        D4
           A6           0.16108
           D1           0.00000   0.02681
           D2           0.00000   0.00000   0.02681
           D3           0.00000   0.00000   0.00000   0.02681
           D4           0.00000   0.00000   0.00000   0.00000   0.02681
 Use linear search instead of GDIIS.
     Eigenvalues ---    0.02681   0.02681   0.02681   0.16000   0.16000
     Eigenvalues ---    0.16000   0.16284   0.37230   0.37230   0.37230
     Eigenvalues ---    0.37343   0.554771000.000001000.000001000.00000
 RFO step:  Lambda=-6.73227631D-06 EMin= 2.68137385D-02
 Quartic linear search produced a step of -0.02957.
 Iteration  1 RMS(Cart)=  0.00319019 RMS(Int)=  0.00000278
 Iteration  2 RMS(Cart)=  0.00000280 RMS(Int)=  0.00000000
 Iteration  3 RMS(Cart)=  0.00000000 RMS(Int)=  0.00000000
 ClnCor:  largest displacement from symmetrization is 1.05D-13 for atom     2.
 Variable       Old X    -DE/DX   Delta X   Delta X   Delta X     New X
                                 (Linear)    (Quad)   (Total)
    R1        2.68231  -0.00154  -0.00359   0.00057  -0.00302   2.67929
    R2        2.05469  -0.00009  -0.00097   0.00063  -0.00033   2.05436
    R3        2.05469  -0.00009  -0.00097   0.00063  -0.00033   2.05436
    R4        2.05469  -0.00009  -0.00097   0.00063  -0.00033   2.05436
    R5        2.05469  -0.00009  -0.00097   0.00063  -0.00033   2.05436
    A1        2.11193  -0.00035  -0.00052  -0.00176  -0.00228   2.10965
    A2        2.11193  -0.00035  -0.00052  -0.00176  -0.00228   2.10965
    A3        2.05933   0.00070   0.00104   0.00353   0.00456   2.06389
    A4        2.11193  -0.00035  -0.00052  -0.00176  -0.00228   2.10965
    A5        2.11193  -0.00035  -0.00052  -0.00176  -0.00228   2.10965
    A6        2.05933   0.00070   0.00104   0.00353   0.00456   2.06389
    D1        3.14159   0.00000   0.00000   0.00000   0.00000   3.14159
    D2        0.00000   0.00000   0.00000   0.00000   0.00000   0.00000
    D3        0.00000   0.00000   0.00000   0.00000   0.00000   0.00000
    D4        3.14159   0.00000   0.00000   0.00000   0.00000   3.14159
         Item               Value     Threshold  Converged?
 Maximum Force            0.001544     0.000450     NO 
 RMS     Force            0.000509     0.000300     NO 
 Maximum Displacement     0.005702     0.001800     NO 
 RMS     Displacement     0.003190     0.001200     NO 
 Predicted change in Energy=-6.368597D-06
 GradGradGradGradGradGradGradGradGradGradGradGradGradGradGradGradGradGrad

 Leave Link  103 at Wed Apr 15 21:50:56 2015, MaxMem= 2013265920 cpu:      44.5
 (Enter /opt/g09/l202.exe)
                          Input orientation:                          
 ---------------------------------------------------------------------
 Center     Atomic      Atomic             Coordinates (Angstroms)
 Number     Number       Type             X           Y           Z
 ---------------------------------------------------------------------
      1          6           0       -0.708908    0.000000    0.000000
      2          6           0        0.708908    0.000000    0.000000
      3          1           0       -1.266763    0.933074    0.000000
      4          1           0       -1.266763   -0.933074    0.000000
      5          1           0        1.266763   -0.933074    0.000000
      6          1           0        1.266763    0.933074    0.000000
 ---------------------------------------------------------------------
                    Distance matrix (angstroms):
                    1          2          3          4          5
     1  C    0.000000
     2  C    1.417817   0.000000
     3  H    1.087119   2.184926   0.000000
     4  H    1.087119   2.184926   1.866148   0.000000
     5  H    2.184926   1.087119   3.146627   2.533525   0.000000
     6  H    2.184926   1.087119   2.533525   3.146627   1.866148
                    6
     6  H    0.000000
 Stoichiometry    C2H4(1+,2)
 Framework group  D2H[C2"(C.C),SG(H4)]
 Deg. of freedom     3
 Full point group                 D2H     NOp   8
 Largest Abelian subgroup         D2H     NOp   8
 Largest concise Abelian subgroup D2      NOp   4
                         Standard orientation:                         
 ---------------------------------------------------------------------
 Center     Atomic      Atomic             Coordinates (Angstroms)
 Number     Number       Type             X           Y           Z
 ---------------------------------------------------------------------
      1          6           0        0.000000    0.000000    0.708908
      2          6           0        0.000000    0.000000   -0.708908
      3          1           0        0.000000    0.933074    1.266763
      4          1           0        0.000000   -0.933074    1.266763
      5          1           0        0.000000   -0.933074   -1.266763
      6          1           0        0.000000    0.933074   -1.266763
 ---------------------------------------------------------------------
 Rotational constants (GHZ):    143.9924600     27.2732612     22.9301225
 Leave Link  202 at Wed Apr 15 21:50:57 2015, MaxMem= 2013265920 cpu:       3.5
 (Enter /opt/g09/l301.exe)
 Standard basis: 6-311G(d) (5D, 7F)
 Ernie: Thresh=  0.10000D-02 Tol=  0.10000D-05 Strict=F.
 There are    12 symmetry adapted basis functions of AG  symmetry.
 There are     1 symmetry adapted basis functions of B1G symmetry.
 There are     4 symmetry adapted basis functions of B2G symmetry.
 There are     7 symmetry adapted basis functions of B3G symmetry.
 There are     1 symmetry adapted basis functions of AU  symmetry.
 There are    12 symmetry adapted basis functions of B1U symmetry.
 There are     7 symmetry adapted basis functions of B2U symmetry.
 There are     4 symmetry adapted basis functions of B3U symmetry.
 Integral buffers will be    131072 words long.
 Raffenetti 2 integral format.
 Two-electron integral symmetry is turned on.
    48 basis functions,    84 primitive gaussians,    50 cartesian basis functions
     8 alpha electrons        7 beta electrons
       nuclear repulsion energy        32.2527890295 Hartrees.
 IExCor=  402 DFT=T Ex+Corr=B3LYP ExCW=0 ScaHFX=  0.200000
 ScaDFX=  0.800000  0.720000  1.000000  0.810000 ScalE2=  1.000000  1.000000
 IRadAn=      0 IRanWt=     -1 IRanGd=            0 ICorTp=0
 NAtoms=    6 NActive=    6 NUniq=    2 SFac= 3.00D+00 NAtFMM=   80 NAOKFM=F Big=F
 Leave Link  301 at Wed Apr 15 21:50:57 2015, MaxMem= 2013265920 cpu:       1.4
 (Enter /opt/g09/l302.exe)
 NPDir=0 NMtPBC=     1 NCelOv=     1 NCel=       1 NClECP=     1 NCelD=      1
         NCelK=      1 NCelE2=     1 NClLst=     1 CellRange=     0.0.
 One-electron integrals computed using PRISM.
 One-electron integral symmetry used in STVInt
 NBasis=    48 RedAO= T  NBF=    12     1     4     7     1    12     7     4
 NBsUse=    48 1.00D-06 NBFU=    12     1     4     7     1    12     7     4
 Precomputing XC quadrature grid using
 IXCGrd= 2 IRadAn=           0 IRanWt=          -1 IRanGd=           0 AccXCQ= 1.00D-10.
 NRdTot=     374 NPtTot=       47012 NUsed=       49721 NTot=       49753
 NSgBfM=    50    50    50    50    50 NAtAll=     6     6.
 Leave Link  302 at Wed Apr 15 21:51:08 2015, MaxMem= 2013265920 cpu:      66.3
 (Enter /opt/g09/l303.exe)
 DipDrv:  MaxL=1.
 Leave Link  303 at Wed Apr 15 21:51:09 2015, MaxMem= 2013265920 cpu:       7.7
 (Enter /opt/g09/l401.exe)
 Initial guess read from the read-write file.
 B after Tr=     0.000000    0.000000    0.000000
         Rot=    1.000000    0.000000    0.000000    0.000000 Ang=   0.00 deg.
 Guess basis will be translated and rotated to current coordinates.
 Initial guess orbital symmetries:
 Alpha Orbitals:
       Occupied  (AG) (B1U) (AG) (B1U) (B2U) (AG) (B3G) (B3U)
       Virtual   (B2G) (AG) (B2U) (B1U) (B3G) (B1U) (B2U) (AG)
                 (AG) (B1U) (B3U) (B2G) (B2U) (B3G) (B1U) (AG)
                 (B1U) (B3G) (B3U) (B1G) (B2U) (AU) (AG) (B1U)
                 (AG) (B3G) (B2G) (B1U) (AG) (B2U) (B1U) (B3U)
                 (B3G) (B2G) (AG) (B2U) (B3G) (B1U) (AG) (B1U)
 Beta  Orbitals:
       Occupied  (AG) (B1U) (AG) (B1U) (B2U) (AG) (B3G)
       Virtual   (B3U) (B2G) (AG) (B2U) (B1U) (B3G) (B1U) (B2U)
                 (AG) (AG) (B1U) (B3U) (B2G) (B2U) (B3G) (B1U)
                 (AG) (B3G) (B1U) (B3U) (B1G) (B2U) (AU) (AG) (AG)
                 (B1U) (B3G) (B2G) (B1U) (AG) (B2U) (B1U) (B3U)
                 (B3G) (B2G) (AG) (B2U) (B3G) (B1U) (AG) (B1U)
 The electronic state of the initial guess is 2-B3U.
 Initial guess <Sx>= 0.0000 <Sy>= 0.0000 <Sz>= 0.5000 <S**2>= 0.7518 S= 0.5009
 Leave Link  401 at Wed Apr 15 21:51:16 2015, MaxMem= 2013265920 cpu:      43.5
 (Enter /opt/g09/l502.exe)
 UHF open shell SCF:
 Requested convergence on RMS density matrix=1.00D-08 within 128 cycles.
 Requested convergence on MAX density matrix=1.00D-06.
 Requested convergence on             energy=1.00D-06.
 No special actions if energy rises.
 Using DIIS extrapolation, IDIIS=  1040.
 Integral symmetry usage will be decided dynamically.
        49654 words used for storage of precomputed grid.
 Keep R1 and R2 ints in memory in canonical form, NReq=2571891.
 IEnd=       77180 IEndB=       77180 NGot=  2013265920 MDV=  2011581003
 LenX=  2011581003 LenY=  2011578062
 Symmetry not used in FoFDir.
 MinBra= 0 MaxBra= 2 Meth= 1.
 IRaf=       0 NMat=   1 IRICut=       1 DoRegI=T DoRafI=F ISym2E= 0 JSym2E=0.

 Cycle   1  Pass 1  IDiag  1:
 E= -78.2274544265897    
 DIIS: error= 2.05D-04 at cycle   1 NSaved=   1.
 NSaved= 1 IEnMin= 1 EnMin= -78.2274544265897     IErMin= 1 ErrMin= 2.05D-04
 ErrMax= 2.05D-04 EMaxC= 1.00D-01 BMatC= 6.30D-06 BMatP= 6.30D-06
 IDIUse=3 WtCom= 9.98D-01 WtEn= 2.05D-03
 Coeff-Com:  0.100D+01
 Coeff-En:   0.100D+01
 Coeff:      0.100D+01
 Gap=     0.269 Goal=   None    Shift=    0.000
 Gap=     0.185 Goal=   None    Shift=    0.000
 RMSDP=2.45D-05 MaxDP=3.08D-04              OVMax= 4.58D-04

 Cycle   2  Pass 1  IDiag  1:
 E= -78.2274556188594     Delta-E=       -0.000001192270 Rises=F Damp=F
 DIIS: error= 9.61D-05 at cycle   2 NSaved=   2.
 NSaved= 2 IEnMin= 2 EnMin= -78.2274556188594     IErMin= 2 ErrMin= 9.61D-05
 ErrMax= 9.61D-05 EMaxC= 1.00D-01 BMatC= 8.41D-07 BMatP= 6.30D-06
 IDIUse=1 WtCom= 1.00D+00 WtEn= 0.00D+00
 Coeff-Com:  0.205D+00 0.795D+00
 Coeff:      0.205D+00 0.795D+00
 Gap=     0.269 Goal=   None    Shift=    0.000
 Gap=     0.185 Goal=   None    Shift=    0.000
 RMSDP=9.47D-06 MaxDP=1.23D-04 DE=-1.19D-06 OVMax= 2.05D-04

 Cycle   3  Pass 1  IDiag  1:
 E= -78.2274557834643     Delta-E=       -0.000000164605 Rises=F Damp=F
 DIIS: error= 4.27D-05 at cycle   3 NSaved=   3.
 NSaved= 3 IEnMin= 3 EnMin= -78.2274557834643     IErMin= 3 ErrMin= 4.27D-05
 ErrMax= 4.27D-05 EMaxC= 1.00D-01 BMatC= 1.61D-07 BMatP= 8.41D-07
 IDIUse=1 WtCom= 1.00D+00 WtEn= 0.00D+00
 Coeff-Com:  0.109D-01 0.301D+00 0.688D+00
 Coeff:      0.109D-01 0.301D+00 0.688D+00
 Gap=     0.269 Goal=   None    Shift=    0.000
 Gap=     0.185 Goal=   None    Shift=    0.000
 RMSDP=3.18D-06 MaxDP=4.91D-05 DE=-1.65D-07 OVMax= 6.74D-05

 Cycle   4  Pass 1  IDiag  1:
 E= -78.2274558252915     Delta-E=       -0.000000041827 Rises=F Damp=F
 DIIS: error= 5.20D-06 at cycle   4 NSaved=   4.
 NSaved= 4 IEnMin= 4 EnMin= -78.2274558252915     IErMin= 4 ErrMin= 5.20D-06
 ErrMax= 5.20D-06 EMaxC= 1.00D-01 BMatC= 2.65D-09 BMatP= 1.61D-07
 IDIUse=1 WtCom= 1.00D+00 WtEn= 0.00D+00
 Coeff-Com: -0.357D-02 0.514D-01 0.187D+00 0.765D+00
 Coeff:     -0.357D-02 0.514D-01 0.187D+00 0.765D+00
 Gap=     0.269 Goal=   None    Shift=    0.000
 Gap=     0.185 Goal=   None    Shift=    0.000
 RMSDP=4.01D-07 MaxDP=7.00D-06 DE=-4.18D-08 OVMax= 7.24D-06

 Cycle   5  Pass 1  IDiag  1:
 E= -78.2274558259321     Delta-E=       -0.000000000641 Rises=F Damp=F
 DIIS: error= 1.38D-07 at cycle   5 NSaved=   5.
 NSaved= 5 IEnMin= 5 EnMin= -78.2274558259321     IErMin= 5 ErrMin= 1.38D-07
 ErrMax= 1.38D-07 EMaxC= 1.00D-01 BMatC= 1.66D-12 BMatP= 2.65D-09
 IDIUse=1 WtCom= 1.00D+00 WtEn= 0.00D+00
 Coeff-Com: -0.119D-03-0.137D-02-0.432D-03 0.175D-01 0.984D+00
 Coeff:     -0.119D-03-0.137D-02-0.432D-03 0.175D-01 0.984D+00
 Gap=     0.269 Goal=   None    Shift=    0.000
 Gap=     0.185 Goal=   None    Shift=    0.000
 RMSDP=1.15D-08 MaxDP=1.07D-07 DE=-6.41D-10 OVMax= 3.38D-07

 Cycle   6  Pass 1  IDiag  1:
 E= -78.2274558259324     Delta-E=        0.000000000000 Rises=F Damp=F
 DIIS: error= 1.07D-08 at cycle   6 NSaved=   6.
 NSaved= 6 IEnMin= 6 EnMin= -78.2274558259324     IErMin= 6 ErrMin= 1.07D-08
 ErrMax= 1.07D-08 EMaxC= 1.00D-01 BMatC= 9.43D-15 BMatP= 1.66D-12
 IDIUse=1 WtCom= 1.00D+00 WtEn= 0.00D+00
 Coeff-Com:  0.240D-04-0.302D-03-0.107D-02-0.540D-02-0.219D-01 0.103D+01
 Coeff:      0.240D-04-0.302D-03-0.107D-02-0.540D-02-0.219D-01 0.103D+01
 Gap=     0.269 Goal=   None    Shift=    0.000
 Gap=     0.185 Goal=   None    Shift=    0.000
 RMSDP=1.38D-09 MaxDP=3.30D-08 DE=-3.55D-13 OVMax= 2.98D-08

 SCF Done:  E(UB3LYP) =  -78.2274558259     A.U. after    6 cycles
             Convg  =    0.1385D-08             -V/T =  2.0041
 <Sx>= 0.0000 <Sy>= 0.0000 <Sz>= 0.5000 <S**2>= 0.7518 S= 0.5009
 <L.S>= 0.000000000000E+00
 KE= 7.790428221325D+01 PE=-2.408864832940D+02 EE= 5.250195622529D+01
 Annihilation of the first spin contaminant:
 S**2 before annihilation     0.7518,   after     0.7500
 Leave Link  502 at Wed Apr 15 21:54:01 2015, MaxMem= 2013265920 cpu:    1088.4
 (Enter /opt/g09/l701.exe)
 Compute integral first derivatives.
 ... and contract with generalized density number  0.
 Leave Link  701 at Wed Apr 15 21:54:06 2015, MaxMem= 2013265920 cpu:      33.0
 (Enter /opt/g09/l702.exe)
 L702 exits ... SP integral derivatives will be done elsewhere.
 Leave Link  702 at Wed Apr 15 21:54:07 2015, MaxMem= 2013265920 cpu:       0.7
 (Enter /opt/g09/l703.exe)
 Compute integral first derivatives, UseDBF=F ICtDFT=           0.
 Integral derivatives from FoFDir, PRISM(SPDF).
 Calling FoFJK, ICntrl=      2127 FMM=F ISym2X=1 I1Cent= 0 IOpClX= 1 NMat=1 NMatS=1 NMatT=0.
 FoFCou: FMM=F IPFlag=           0 FMFlag=      100000 FMFlg1=         800
         NFxFlg=           0 DoJE=F BraDBF=F KetDBF=F FulRan=T
         Omega=  0.000000  0.000000  1.000000  0.000000  0.000000 ICntrl=    2127 IOpCl=  1
         NMat0=    1 NMatS0=    1 NMatT0=    0 NMatD0=    1 NMtDS0=    0 NMtDT0=    0
         I1Cent=           0 NGrid=           0.
 Petite list used in FoFCou.
 Leave Link  703 at Wed Apr 15 21:54:14 2015, MaxMem= 2013265920 cpu:      47.3
 (Enter /opt/g09/l716.exe)
 Dipole        =-4.79039175D-17 2.22044605D-16 0.00000000D+00
 ***** Axes restored to original set *****
 -------------------------------------------------------------------
 Center     Atomic                   Forces (Hartrees/Bohr)
 Number     Number              X              Y              Z
 -------------------------------------------------------------------
      1        6          -0.000257107    0.000000000    0.000000000
      2        6           0.000257107    0.000000000    0.000000000
      3        1           0.000063533    0.000055838    0.000000000
      4        1           0.000063533   -0.000055838    0.000000000
      5        1          -0.000063533   -0.000055838    0.000000000
      6        1          -0.000063533    0.000055838    0.000000000
 -------------------------------------------------------------------
 Cartesian Forces:  Max     0.000257107 RMS     0.000094524
 Leave Link  716 at Wed Apr 15 21:54:15 2015, MaxMem= 2013265920 cpu:       0.7
 (Enter /opt/g09/l103.exe)

 GradGradGradGradGradGradGradGradGradGradGradGradGradGradGradGradGradGrad
 Berny optimization.
 Using GEDIIS/GDIIS optimizer.
 Internal  Forces:  Max     0.000130042 RMS     0.000061529
 Search for a local minimum.
 Step number   3 out of a maximum of   25
 All quantities printed in internal units (Hartrees-Bohrs-Radians)
 RMS Force = .61529D-04 SwitMx=.10000D-02 MixMth= 2
 Mixed Optimization -- En-DIIS/RFO-DIIS
 Swaping is turned off.
 Update second derivatives using D2CorX and points    1    2    3
 DE= -7.77D-06 DEPred=-6.37D-06 R= 1.22D+00
 SS=  1.41D+00  RLast= 8.49D-03 DXNew= 7.5995D-01 2.5462D-02
 Trust test= 1.22D+00 RLast= 8.49D-03 DXMaxT set to 4.52D-01
 The second derivative matrix:
                          R1        R2        R3        R4        R5
           R1           0.56914
           R2          -0.00141   0.37204
           R3          -0.00141  -0.00027   0.37204
           R4          -0.00141  -0.00027  -0.00027   0.37204
           R5          -0.00141  -0.00027  -0.00027  -0.00027   0.37204
           A1          -0.00161  -0.00064  -0.00064  -0.00064  -0.00064
           A2          -0.00161  -0.00064  -0.00064  -0.00064  -0.00064
           A3           0.00323   0.00129   0.00129   0.00129   0.00129
           A4          -0.00161  -0.00064  -0.00064  -0.00064  -0.00064
           A5          -0.00161  -0.00064  -0.00064  -0.00064  -0.00064
           A6           0.00323   0.00129   0.00129   0.00129   0.00129
           D1           0.00000   0.00000   0.00000   0.00000   0.00000
           D2           0.00000   0.00000   0.00000   0.00000   0.00000
           D3           0.00000   0.00000   0.00000   0.00000   0.00000
           D4           0.00000   0.00000   0.00000   0.00000   0.00000
                          A1        A2        A3        A4        A5
           A1           0.15761
           A2          -0.00239   0.15761
           A3           0.00479   0.00479   0.15043
           A4          -0.00239  -0.00239   0.00479   0.15761
           A5          -0.00239  -0.00239   0.00479  -0.00239   0.15761
           A6           0.00479   0.00479  -0.00957   0.00479   0.00479
           D1           0.00000   0.00000   0.00000   0.00000   0.00000
           D2           0.00000   0.00000   0.00000   0.00000   0.00000
           D3           0.00000   0.00000   0.00000   0.00000   0.00000
           D4           0.00000   0.00000   0.00000   0.00000   0.00000
                          A6        D1        D2        D3        D4
           A6           0.15043
           D1           0.00000   0.02681
           D2           0.00000   0.00000   0.02681
           D3           0.00000   0.00000   0.00000   0.02681
           D4           0.00000   0.00000   0.00000   0.00000   0.02681
     Eigenvalues ---    0.02681   0.02681   0.02681   0.13113   0.16000
     Eigenvalues ---    0.16000   0.16000   0.37129   0.37230   0.37230
     Eigenvalues ---    0.37230   0.569251000.000001000.000001000.00000
 En-DIIS/RFO-DIIS IScMMF=        0 using points:     3    2
 RFO step:  Lambda=-1.30299745D-07.
 DIIS coeffs:      1.08659     -0.08659
 Iteration  1 RMS(Cart)=  0.00041371 RMS(Int)=  0.00000010
 Iteration  2 RMS(Cart)=  0.00000010 RMS(Int)=  0.00000000
 ClnCor:  largest displacement from symmetrization is 4.55D-14 for atom     1.
 Variable       Old X    -DE/DX   Delta X   Delta X   Delta X     New X
                                  (DIIS)     (GDIIS)  (Total)
    R1        2.67929   0.00013  -0.00026   0.00048   0.00021   2.67950
    R2        2.05436   0.00002  -0.00003   0.00006   0.00003   2.05439
    R3        2.05436   0.00002  -0.00003   0.00006   0.00003   2.05439
    R4        2.05436   0.00002  -0.00003   0.00006   0.00003   2.05439
    R5        2.05436   0.00002  -0.00003   0.00006   0.00003   2.05439
    A1        2.10965  -0.00006  -0.00020  -0.00023  -0.00043   2.10922
    A2        2.10965  -0.00006  -0.00020  -0.00023  -0.00043   2.10922
    A3        2.06389   0.00011   0.00040   0.00047   0.00086   2.06475
    A4        2.10965  -0.00006  -0.00020  -0.00023  -0.00043   2.10922
    A5        2.10965  -0.00006  -0.00020  -0.00023  -0.00043   2.10922
    A6        2.06389   0.00011   0.00040   0.00047   0.00086   2.06475
    D1        3.14159   0.00000   0.00000   0.00000   0.00000   3.14159
    D2        0.00000   0.00000   0.00000   0.00000   0.00000   0.00000
    D3        0.00000   0.00000   0.00000   0.00000   0.00000   0.00000
    D4        3.14159   0.00000   0.00000   0.00000   0.00000   3.14159
         Item               Value     Threshold  Converged?
 Maximum Force            0.000130     0.000450     YES
 RMS     Force            0.000062     0.000300     YES
 Maximum Displacement     0.000635     0.001800     YES
 RMS     Displacement     0.000414     0.001200     YES
 Predicted change in Energy=-1.621063D-07
 Optimization completed.
    -- Stationary point found.
                           ----------------------------
                           !   Optimized Parameters   !
                           ! (Angstroms and Degrees)  !
 --------------------------                            --------------------------
 ! Name  Definition              Value          Derivative Info.                !
 --------------------------------------------------------------------------------
 ! R1    R(1,2)                  1.4178         -DE/DX =    0.0001              !
 ! R2    R(1,3)                  1.0871         -DE/DX =    0.0                 !
 ! R3    R(1,4)                  1.0871         -DE/DX =    0.0                 !
 ! R4    R(2,5)                  1.0871         -DE/DX =    0.0                 !
 ! R5    R(2,6)                  1.0871         -DE/DX =    0.0                 !
 ! A1    A(2,1,3)              120.8738         -DE/DX =   -0.0001              !
 ! A2    A(2,1,4)              120.8738         -DE/DX =   -0.0001              !
 ! A3    A(3,1,4)              118.2524         -DE/DX =    0.0001              !
 ! A4    A(1,2,5)              120.8738         -DE/DX =   -0.0001              !
 ! A5    A(1,2,6)              120.8738         -DE/DX =   -0.0001              !
 ! A6    A(5,2,6)              118.2524         -DE/DX =    0.0001              !
 ! D1    D(3,1,2,5)            180.0            -DE/DX =    0.0                 !
 ! D2    D(3,1,2,6)              0.0            -DE/DX =    0.0                 !
 ! D3    D(4,1,2,5)              0.0            -DE/DX =    0.0                 !
 ! D4    D(4,1,2,6)            180.0            -DE/DX =    0.0                 !
 --------------------------------------------------------------------------------
 GradGradGradGradGradGradGradGradGradGradGradGradGradGradGradGradGradGrad

 Largest change from initial coordinates is atom    3       0.055 Angstoms.
 Leave Link  103 at Wed Apr 15 21:54:19 2015, MaxMem= 2013265920 cpu:      21.2
 (Enter /opt/g09/l202.exe)
                          Input orientation:                          
 ---------------------------------------------------------------------
 Center     Atomic      Atomic             Coordinates (Angstroms)
 Number     Number       Type             X           Y           Z
 ---------------------------------------------------------------------
      1          6           0       -0.708908    0.000000    0.000000
      2          6           0        0.708908    0.000000    0.000000
      3          1           0       -1.266763    0.933074    0.000000
      4          1           0       -1.266763   -0.933074    0.000000
      5          1           0        1.266763   -0.933074    0.000000
      6          1           0        1.266763    0.933074    0.000000
 ---------------------------------------------------------------------
                    Distance matrix (angstroms):
                    1          2          3          4          5
     1  C    0.000000
     2  C    1.417817   0.000000
     3  H    1.087119   2.184926   0.000000
     4  H    1.087119   2.184926   1.866148   0.000000
     5  H    2.184926   1.087119   3.146627   2.533525   0.000000
     6  H    2.184926   1.087119   2.533525   3.146627   1.866148
                    6
     6  H    0.000000
 Stoichiometry    C2H4(1+,2)
 Framework group  D2H[C2"(C.C),SG(H4)]
 Deg. of freedom     3
 Full point group                 D2H     NOp   8
 Largest Abelian subgroup         D2H     NOp   8
 Largest concise Abelian subgroup D2      NOp   4
                         Standard orientation:                         
 ---------------------------------------------------------------------
 Center     Atomic      Atomic             Coordinates (Angstroms)
 Number     Number       Type             X           Y           Z
 ---------------------------------------------------------------------
      1          6           0        0.000000    0.000000    0.708908
      2          6           0        0.000000    0.000000   -0.708908
      3          1           0        0.000000    0.933074    1.266763
      4          1           0        0.000000   -0.933074    1.266763
      5          1           0        0.000000   -0.933074   -1.266763
      6          1           0        0.000000    0.933074   -1.266763
 ---------------------------------------------------------------------
 Rotational constants (GHZ):    143.9924600     27.2732612     22.9301225
 Leave Link  202 at Wed Apr 15 21:54:19 2015, MaxMem= 2013265920 cpu:       3.2
 (Enter /opt/g09/l601.exe)
 Copying SCF densities to generalized density rwf, IOpCl= 1 IROHF=0.

 **********************************************************************

            Population analysis using the SCF density.

 **********************************************************************

 Orbital symmetries:
 Alpha Orbitals:
       Occupied  (AG) (B1U) (AG) (B1U) (B2U) (AG) (B3G) (B3U)
       Virtual   (B2G) (AG) (B2U) (B1U) (B3G) (B1U) (B2U) (AG)
                 (AG) (B1U) (B3U) (B2G) (B2U) (B3G) (B1U) (AG)
                 (B1U) (B3G) (B3U) (B1G) (B2U) (AG) (AU) (B1U)
                 (AG) (B3G) (B2G) (B1U) (AG) (B2U) (B1U) (B3U)
                 (B3G) (B2G) (AG) (B2U) (B3G) (B1U) (AG) (B1U)
 Beta  Orbitals:
       Occupied  (AG) (B1U) (AG) (B1U) (B2U) (AG) (B3G)
       Virtual   (B3U) (B2G) (AG) (B2U) (B1U) (B3G) (B1U) (B2U)
                 (AG) (AG) (B1U) (B3U) (B2G) (B2U) (B3G) (B1U)
                 (AG) (B3G) (B1U) (B3U) (B1G) (B2U) (AU) (AG) (AG)
                 (B1U) (B3G) (B2G) (B1U) (AG) (B2U) (B1U) (B3U)
                 (B3G) (B2G) (AG) (B2U) (B3G) (B1U) (AG) (B1U)
 The electronic state is 2-B3U.
 Alpha  occ. eigenvalues --  -10.53262 -10.53216  -1.09179  -0.89861  -0.77632
 Alpha  occ. eigenvalues --   -0.73417  -0.66949  -0.61593
 Alpha virt. eigenvalues --   -0.34675  -0.16247  -0.13649  -0.13297  -0.05280
 Alpha virt. eigenvalues --    0.00381   0.04709   0.06039   0.10463   0.11612
 Alpha virt. eigenvalues --    0.12258   0.20966   0.32696   0.32793   0.37854
 Alpha virt. eigenvalues --    0.41167   0.50092   0.50942   0.80436   0.82309
 Alpha virt. eigenvalues --    1.07059   1.08916   1.08923   1.31282   1.31417
 Alpha virt. eigenvalues --    1.53979   1.55704   1.76734   1.90944   2.00045
 Alpha virt. eigenvalues --    2.05822   2.21917   2.33548   2.43403   2.67925
 Alpha virt. eigenvalues --    2.80776   2.95088   3.38905  22.93142  23.50679
  Beta  occ. eigenvalues --  -10.52512 -10.52472  -1.05789  -0.88226  -0.76927
  Beta  occ. eigenvalues --   -0.72437  -0.66554
  Beta virt. eigenvalues --   -0.48023  -0.28090  -0.15880  -0.13425  -0.12510
  Beta virt. eigenvalues --   -0.05101   0.01185   0.04871   0.06432   0.12037
  Beta virt. eigenvalues --    0.13195   0.15580   0.24015   0.33129   0.33257
  Beta virt. eigenvalues --    0.38515   0.42453   0.51194   0.51729   0.84695
  Beta virt. eigenvalues --    0.85997   1.07405   1.12251   1.12423   1.33453
  Beta virt. eigenvalues --    1.33845   1.54218   1.59408   1.78629   1.90899
  Beta virt. eigenvalues --    2.00206   2.06218   2.26248   2.34020   2.48144
  Beta virt. eigenvalues --    2.69183   2.81359   2.95553   3.40413  22.94057
  Beta virt. eigenvalues --   23.51635
          Condensed to atoms (all electrons):
              1          2          3          4          5          6
     1  C    5.137982   0.391117   0.361232   0.361232  -0.028983  -0.028983
     2  C    0.391117   5.137982  -0.028983  -0.028983   0.361232   0.361232
     3  H    0.361232  -0.028983   0.332912  -0.011676   0.001808  -0.002091
     4  H    0.361232  -0.028983  -0.011676   0.332912  -0.002091   0.001808
     5  H   -0.028983   0.361232   0.001808  -0.002091   0.332912  -0.011676
     6  H   -0.028983   0.361232  -0.002091   0.001808  -0.011676   0.332912
 Mulliken atomic charges:
              1
     1  C   -0.193597
     2  C   -0.193597
     3  H    0.346799
     4  H    0.346799
     5  H    0.346799
     6  H    0.346799
 Sum of Mulliken atomic charges =   1.00000
 Mulliken charges with hydrogens summed into heavy atoms:
              1
     1  C    0.500000
     2  C    0.500000
 Sum of Mulliken charges with hydrogens summed into heavy atoms =   1.00000
          Atomic-Atomic Spin Densities.
              1          2          3          4          5          6
     1  C    0.459368   0.097459  -0.005857  -0.005857  -0.000612  -0.000612
     2  C    0.097459   0.459368  -0.000612  -0.000612  -0.005857  -0.005857
     3  H   -0.005857  -0.000612  -0.016706   0.001057  -0.000113   0.000286
     4  H   -0.005857  -0.000612   0.001057  -0.016706   0.000286  -0.000113
     5  H   -0.000612  -0.005857  -0.000113   0.000286  -0.016706   0.001057
     6  H   -0.000612  -0.005857   0.000286  -0.000113   0.001057  -0.016706
 Mulliken atomic spin densities:
              1
     1  C    0.543890
     2  C    0.543890
     3  H   -0.021945
     4  H   -0.021945
     5  H   -0.021945
     6  H   -0.021945
 Sum of Mulliken atomic spin densities =   1.00000
 Electronic spatial extent (au):  <R**2>=             75.9318
 Charge=              1.0000 electrons
 Dipole moment (field-independent basis, Debye):
    X=              0.0000    Y=              0.0000    Z=              0.0000  Tot=              0.0000
 Quadrupole moment (field-independent basis, Debye-Ang):
   XX=            -11.5281   YY=             -8.4894   ZZ=             -5.5893
   XY=              0.0000   XZ=              0.0000   YZ=              0.0000
 Traceless Quadrupole moment (field-independent basis, Debye-Ang):
   XX=             -2.9925   YY=              0.0462   ZZ=              2.9463
   XY=              0.0000   XZ=              0.0000   YZ=              0.0000
 Octapole moment (field-independent basis, Debye-Ang**2):
  XXX=              0.0000  YYY=              0.0000  ZZZ=              0.0000  XYY=              0.0000
  XXY=              0.0000  XXZ=              0.0000  XZZ=              0.0000  YZZ=              0.0000
  YYZ=              0.0000  XYZ=              0.0000
 Hexadecapole moment (field-independent basis, Debye-Ang**3):
 XXXX=            -10.6125 YYYY=            -18.1356 ZZZZ=            -52.6385 XXXY=              0.0000
 XXXZ=              0.0000 YYYX=              0.0000 YYYZ=              0.0000 ZZZX=              0.0000
 ZZZY=              0.0000 XXYY=             -5.8080 XXZZ=            -12.0771 YYZZ=             -6.7873
 XXYZ=              0.0000 YYXZ=              0.0000 ZZXY=              0.0000
 N-N= 3.225278902952D+01 E-N=-3.572064803738D+02  KE= 1.162525271412D+02
 Symmetry AG   KE= 5.651787689416D+01
 Symmetry B1G  KE= 4.967066999237D-34
 Symmetry B2G  KE= 1.161073173116D-32
 Symmetry B3G  KE= 3.456549250829D+00
 Symmetry AU   KE= 5.530732929512D-34
 Symmetry B1U  KE= 5.206380624693D+01
 Symmetry B2U  KE= 3.064746542306D+00
 Symmetry B3U  KE= 1.149548206983D+00
                          Isotropic Fermi Contact Couplings
        Atom                 a.u.       MegaHertz       Gauss      10(-4) cm-1
     1  C(13)              0.02174      24.43431       8.71877       8.15041
     2  C(13)              0.02174      24.43431       8.71877       8.15041
     3  H(1)              -0.00786     -35.11269     -12.52908     -11.71233
     4  H(1)              -0.00786     -35.11269     -12.52908     -11.71233
     5  H(1)              -0.00786     -35.11269     -12.52908     -11.71233
     6  H(1)              -0.00786     -35.11269     -12.52908     -11.71233
 --------------------------------------------------------
       Center         ----  Spin Dipole Couplings  ----
                      3XX-RR        3YY-RR        3ZZ-RR
 --------------------------------------------------------
     1   Atom        0.609707     -0.316291     -0.293416
     2   Atom        0.609707     -0.316291     -0.293416
     3   Atom       -0.011652      0.014028     -0.002377
     4   Atom       -0.011652      0.014028     -0.002377
     5   Atom       -0.011652      0.014028     -0.002377
     6   Atom       -0.011652      0.014028     -0.002377
 --------------------------------------------------------
                        XY            XZ            YZ
 --------------------------------------------------------
     1   Atom        0.000000      0.000000      0.000000
     2   Atom        0.000000      0.000000      0.000000
     3   Atom        0.000000      0.000000      0.043900
     4   Atom        0.000000      0.000000     -0.043900
     5   Atom        0.000000      0.000000      0.043900
     6   Atom        0.000000      0.000000     -0.043900
 --------------------------------------------------------


 ---------------------------------------------------------------------------------
              Anisotropic Spin Dipole Couplings in Principal Axis System
 ---------------------------------------------------------------------------------

       Atom             a.u.   MegaHertz   Gauss  10(-4) cm-1        Axes

              Baa    -0.3163   -42.443   -15.145   -14.158  0.0000  1.0000  0.0000
     1 C(13)  Bbb    -0.2934   -39.374   -14.049   -13.134  0.0000  0.0000  1.0000
              Bcc     0.6097    81.817    29.194    27.291  1.0000  0.0000  0.0000
 
              Baa    -0.3163   -42.443   -15.145   -14.158  0.0000  1.0000  0.0000
     2 C(13)  Bbb    -0.2934   -39.374   -14.049   -13.134  0.0000  0.0000  1.0000
              Bcc     0.6097    81.817    29.194    27.291  1.0000  0.0000  0.0000
 
              Baa    -0.0388   -20.720    -7.393    -6.911  0.0000 -0.6389  0.7693
     3 H(1)   Bbb    -0.0117    -6.217    -2.218    -2.074  1.0000  0.0000  0.0000
              Bcc     0.0505    26.937     9.612     8.985  0.0000  0.7693  0.6389
 
              Baa    -0.0388   -20.720    -7.393    -6.911  0.0000  0.6389  0.7693
     4 H(1)   Bbb    -0.0117    -6.217    -2.218    -2.074  1.0000  0.0000  0.0000
              Bcc     0.0505    26.937     9.612     8.985  0.0000  0.7693 -0.6389
 
              Baa    -0.0388   -20.720    -7.393    -6.911  0.0000 -0.6389  0.7693
     5 H(1)   Bbb    -0.0117    -6.217    -2.218    -2.074  1.0000  0.0000  0.0000
              Bcc     0.0505    26.937     9.612     8.985  0.0000  0.7693  0.6389
 
              Baa    -0.0388   -20.720    -7.393    -6.911  0.0000  0.6389  0.7693
     6 H(1)   Bbb    -0.0117    -6.217    -2.218    -2.074  1.0000  0.0000  0.0000
              Bcc     0.0505    26.937     9.612     8.985  0.0000  0.7693 -0.6389
 

 ---------------------------------------------------------------------------------

 No NMR shielding tensors so no spin-rotation constants.
 Leave Link  601 at Wed Apr 15 21:54:30 2015, MaxMem= 2013265920 cpu:      62.5
 (Enter /opt/g09/l9999.exe)
 1\1\GINC-TITANIUM\FOpt\UB3LYP\6-311G(d)\C2H4(1+,2)\JARVIST\15-Apr-2015
 \0\\#p opt b3lyp/6-311g(d) geom=connectivity\\C2H2 Ethylene; Geom Opt\
 \1,2\C,-0.7089083396,0.,0.\C,0.7089083396,0.,0.\H,-1.2667625087,0.9330
 74144,0.\H,-1.2667625087,-0.933074144,0.\H,1.2667625087,-0.933074144,0
 .\H,1.2667625087,0.933074144,0.\\Version=EM64L-G09RevA.02\State=2-B3U\
 HF=-78.2274558\S2=0.751822\S2-1=0.\S2A=0.750002\RMSD=1.385e-09\RMSF=9.
 452e-05\Dipole=0.,0.,0.\Quadrupole=2.1904928,0.0343536,-2.2248464,0.,0
 .,0.\PG=D02H [C2"(C1.C1),SG(H4)]\\@


 WHEN YOU'VE SEEN ONE NUCLEAR WAR YOU'VE SEEN THEM ALL.
 Job cpu time:  0 days  1 hours 20 minutes 30.8 seconds.
 File lengths (MBytes):  RWF=      5 Int=      0 D2E=      0 Chk=      1 Scr=      1
 Normal termination of Gaussian 09 at Wed Apr 15 21:54:30 2015.
