 Entering Gaussian System, Link 0=g09
 Input=C2H4_neutral.com
 Output=C2H4_neutral.log
 Initial command:
 /opt/g09/l1.exe /home/jarvist/work/NWCHEM/CDFT/Gau-30282.inp -scrdir=/home/jarvist/work/NWCHEM/CDFT/
 Default is to use a total of   8 processors:
                                8 via shared-memory
                                1 via Linda
 Entering Link 1 = /opt/g09/l1.exe PID=     30284.
  
 Copyright (c) 1988,1990,1992,1993,1995,1998,2003,2009, Gaussian, Inc.
                  All Rights Reserved.
  
 This is part of the Gaussian(R) 09 program.  It is based on
 the Gaussian(R) 03 system (copyright 2003, Gaussian, Inc.),
 the Gaussian(R) 98 system (copyright 1998, Gaussian, Inc.),
 the Gaussian(R) 94 system (copyright 1995, Gaussian, Inc.),
 the Gaussian 92(TM) system (copyright 1992, Gaussian, Inc.),
 the Gaussian 90(TM) system (copyright 1990, Gaussian, Inc.),
 the Gaussian 88(TM) system (copyright 1988, Gaussian, Inc.),
 the Gaussian 86(TM) system (copyright 1986, Carnegie Mellon
 University), and the Gaussian 82(TM) system (copyright 1983,
 Carnegie Mellon University). Gaussian is a federally registered
 trademark of Gaussian, Inc.
  
 This software contains proprietary and confidential information,
 including trade secrets, belonging to Gaussian, Inc.
  
 This software is provided under written license and may be
 used, copied, transmitted, or stored only in accord with that
 written license.
  
 The following legend is applicable only to US Government
 contracts under FAR:
  
                    RESTRICTED RIGHTS LEGEND
  
 Use, reproduction and disclosure by the US Government is
 subject to restrictions as set forth in subparagraphs (a)
 and (c) of the Commercial Computer Software - Restricted
 Rights clause in FAR 52.227-19.
  
 Gaussian, Inc.
 340 Quinnipiac St., Bldg. 40, Wallingford CT 06492
  
  
 ---------------------------------------------------------------
 Warning -- This program may not be used in any manner that
 competes with the business of Gaussian, Inc. or will provide
 assistance to any competitor of Gaussian, Inc.  The licensee
 of this program is prohibited from giving any competitor of
 Gaussian, Inc. access to this program.  By using this program,
 the user acknowledges that Gaussian, Inc. is engaged in the
 business of creating and licensing software in the field of
 computational chemistry and represents and warrants to the
 licensee that it is not a competitor of Gaussian, Inc. and that
 it will not use this program in any manner prohibited above.
 ---------------------------------------------------------------
  

 Cite this work as:
 Gaussian 09, Revision A.02,
 M. J. Frisch, G. W. Trucks, H. B. Schlegel, G. E. Scuseria, 
 M. A. Robb, J. R. Cheeseman, G. Scalmani, V. Barone, B. Mennucci, 
 G. A. Petersson, H. Nakatsuji, M. Caricato, X. Li, H. P. Hratchian, 
 A. F. Izmaylov, J. Bloino, G. Zheng, J. L. Sonnenberg, M. Hada, 
 M. Ehara, K. Toyota, R. Fukuda, J. Hasegawa, M. Ishida, T. Nakajima, 
 Y. Honda, O. Kitao, H. Nakai, T. Vreven, J. A. Montgomery, Jr., 
 J. E. Peralta, F. Ogliaro, M. Bearpark, J. J. Heyd, E. Brothers, 
 K. N. Kudin, V. N. Staroverov, R. Kobayashi, J. Normand, 
 K. Raghavachari, A. Rendell, J. C. Burant, S. S. Iyengar, J. Tomasi, 
 M. Cossi, N. Rega, J. M. Millam, M. Klene, J. E. Knox, J. B. Cross, 
 V. Bakken, C. Adamo, J. Jaramillo, R. Gomperts, R. E. Stratmann, 
 O. Yazyev, A. J. Austin, R. Cammi, C. Pomelli, J. W. Ochterski, 
 R. L. Martin, K. Morokuma, V. G. Zakrzewski, G. A. Voth, 
 P. Salvador, J. J. Dannenberg, S. Dapprich, A. D. Daniels, 
 O. Farkas, J. B. Foresman, J. V. Ortiz, J. Cioslowski, 
 and D. J. Fox, Gaussian, Inc., Wallingford CT, 2009.
 
 ******************************************
 Gaussian 09:  EM64L-G09RevA.02 11-Jun-2009
                15-Apr-2015 
 ******************************************
 %nprocshared=24
 Will use up to   24 processors via shared memory.
 Default route:  MaxDisk=100GB
 ----------------------------------------
 #p opt b3lyp/6-311g(d) geom=connectivity
 ----------------------------------------
 1/14=-1,18=20,19=15,26=3,38=1,57=2/1,3;
 2/9=110,12=2,17=6,18=5,40=1/2;
 3/5=4,6=6,7=1,11=2,16=1,25=1,30=1,71=1,74=-5/1,2,3;
 4//1;
 5/5=2,38=5/2;
 6/7=2,8=2,9=2,10=2,28=1/1;
 7//1,2,3,16;
 1/14=-1,18=20,19=15/3(2);
 2/9=110/2;
 99//99;
 2/9=110/2;
 3/5=4,6=6,7=1,11=2,16=1,25=1,30=1,71=1,74=-5/1,2,3;
 4/5=5,16=3/1;
 5/5=2,38=5/2;
 7//1,2,3,16;
 1/14=-1,18=20,19=15/3(-5);
 2/9=110/2;
 6/7=2,8=2,9=2,10=2,19=2,28=1/1;
 99/9=1/99;
 Leave Link    1 at Wed Apr 15 21:56:43 2015, MaxMem=          0 cpu:       1.9
 (Enter /opt/g09/l101.exe)
 -----------------------
 C2H2 Ethylene; Geom Opt
 -----------------------
 Symbolic Z-matrix:
 Charge =  0 Multiplicity = 1
 C                    -0.6776    0.        0. 
 C                     0.6776    0.        0. 
 H                    -1.2126    0.92665   0. 
 H                    -1.2126   -0.92665   0. 
 H                     1.2126   -0.92665   0. 
 H                     1.2126    0.92665   0. 
 
 NAtoms=      6 NQM=      6 NQMF=      0 NMic=      0 NMicF=      0 NTot=      6.
                    Isotopes and Nuclear Properties:
 (Nuclear quadrupole moments (NQMom) in fm**2, nuclear magnetic moments (NMagM)
  in nuclear magnetons)

  Atom         1           2           3           4           5           6
 IAtWgt=          12          12           1           1           1           1
 AtmWgt=  12.0000000  12.0000000   1.0078250   1.0078250   1.0078250   1.0078250
 NucSpn=           0           0           1           1           1           1
 AtZEff=   0.0000000   0.0000000   0.0000000   0.0000000   0.0000000   0.0000000
 NQMom=    0.0000000   0.0000000   0.0000000   0.0000000   0.0000000   0.0000000
 NMagM=    0.0000000   0.0000000   2.7928460   2.7928460   2.7928460   2.7928460
 Leave Link  101 at Wed Apr 15 21:56:43 2015, MaxMem= 2013265920 cpu:       3.6
 (Enter /opt/g09/l103.exe)

 GradGradGradGradGradGradGradGradGradGradGradGradGradGradGradGradGradGrad
 Berny optimization.
 Initialization pass.
                           ----------------------------
                           !    Initial Parameters    !
                           ! (Angstroms and Degrees)  !
 --------------------------                            --------------------------
 ! Name  Definition              Value          Derivative Info.                !
 --------------------------------------------------------------------------------
 ! R1    R(1,2)                  1.3552         estimate D2E/DX2                !
 ! R2    R(1,3)                  1.07           estimate D2E/DX2                !
 ! R3    R(1,4)                  1.07           estimate D2E/DX2                !
 ! R4    R(2,5)                  1.07           estimate D2E/DX2                !
 ! R5    R(2,6)                  1.07           estimate D2E/DX2                !
 ! A1    A(2,1,3)              120.0            estimate D2E/DX2                !
 ! A2    A(2,1,4)              120.0            estimate D2E/DX2                !
 ! A3    A(3,1,4)              120.0            estimate D2E/DX2                !
 ! A4    A(1,2,5)              120.0            estimate D2E/DX2                !
 ! A5    A(1,2,6)              120.0            estimate D2E/DX2                !
 ! A6    A(5,2,6)              120.0            estimate D2E/DX2                !
 ! D1    D(3,1,2,5)            180.0            estimate D2E/DX2                !
 ! D2    D(3,1,2,6)              0.0            estimate D2E/DX2                !
 ! D3    D(4,1,2,5)              0.0            estimate D2E/DX2                !
 ! D4    D(4,1,2,6)            180.0            estimate D2E/DX2                !
 --------------------------------------------------------------------------------
 Trust Radius=3.00D-01 FncErr=1.00D-07 GrdErr=1.00D-06
 Number of steps in this run=  25 maximum allowed number of steps= 100.
 GradGradGradGradGradGradGradGradGradGradGradGradGradGradGradGradGradGrad

 Leave Link  103 at Wed Apr 15 21:56:44 2015, MaxMem= 2013265920 cpu:       0.2
 (Enter /opt/g09/l202.exe)
                          Input orientation:                          
 ---------------------------------------------------------------------
 Center     Atomic      Atomic             Coordinates (Angstroms)
 Number     Number       Type             X           Y           Z
 ---------------------------------------------------------------------
      1          6           0       -0.677600    0.000000    0.000000
      2          6           0        0.677600    0.000000    0.000000
      3          1           0       -1.212600    0.926647    0.000000
      4          1           0       -1.212600   -0.926647    0.000000
      5          1           0        1.212600   -0.926647    0.000000
      6          1           0        1.212600    0.926647    0.000000
 ---------------------------------------------------------------------
                    Distance matrix (angstroms):
                    1          2          3          4          5
     1  C    0.000000
     2  C    1.355200   0.000000
     3  H    1.070000   2.105120   0.000000
     4  H    1.070000   2.105120   1.853294   0.000000
     5  H    2.105120   1.070000   3.052261   2.425200   0.000000
     6  H    2.105120   1.070000   2.425200   3.052261   1.853294
                    6
     6  H    0.000000
 Stoichiometry    C2H4
 Framework group  D2H[C2"(C.C),SG(H4)]
 Deg. of freedom     3
 Full point group                 D2H     NOp   8
 Largest Abelian subgroup         D2H     NOp   8
 Largest concise Abelian subgroup D2      NOp   4
                         Standard orientation:                         
 ---------------------------------------------------------------------
 Center     Atomic      Atomic             Coordinates (Angstroms)
 Number     Number       Type             X           Y           Z
 ---------------------------------------------------------------------
      1          6           0        0.000000    0.000000    0.677600
      2          6           0        0.000000    0.000000   -0.677600
      3          1           0        0.000000    0.926647    1.212600
      4          1           0        0.000000   -0.926647    1.212600
      5          1           0        0.000000   -0.926647   -1.212600
      6          1           0        0.000000    0.926647   -1.212600
 ---------------------------------------------------------------------
 Rotational constants (GHZ):    145.9967690     29.8211117     24.7630442
 Leave Link  202 at Wed Apr 15 21:56:44 2015, MaxMem= 2013265920 cpu:       1.5
 (Enter /opt/g09/l301.exe)
 Standard basis: 6-311G(d) (5D, 7F)
 Ernie: Thresh=  0.10000D-02 Tol=  0.10000D-05 Strict=F.
 There are    12 symmetry adapted basis functions of AG  symmetry.
 There are     1 symmetry adapted basis functions of B1G symmetry.
 There are     4 symmetry adapted basis functions of B2G symmetry.
 There are     7 symmetry adapted basis functions of B3G symmetry.
 There are     1 symmetry adapted basis functions of AU  symmetry.
 There are    12 symmetry adapted basis functions of B1U symmetry.
 There are     7 symmetry adapted basis functions of B2U symmetry.
 There are     4 symmetry adapted basis functions of B3U symmetry.
 Integral buffers will be    131072 words long.
 Raffenetti 2 integral format.
 Two-electron integral symmetry is turned on.
    48 basis functions,    84 primitive gaussians,    50 cartesian basis functions
     8 alpha electrons        8 beta electrons
       nuclear repulsion energy        33.3138808313 Hartrees.
 IExCor=  402 DFT=T Ex+Corr=B3LYP ExCW=0 ScaHFX=  0.200000
 ScaDFX=  0.800000  0.720000  1.000000  0.810000 ScalE2=  1.000000  1.000000
 IRadAn=      0 IRanWt=     -1 IRanGd=            0 ICorTp=0
 NAtoms=    6 NActive=    6 NUniq=    2 SFac= 3.00D+00 NAtFMM=   80 NAOKFM=F Big=F
 Leave Link  301 at Wed Apr 15 21:56:45 2015, MaxMem= 2013265920 cpu:       1.2
 (Enter /opt/g09/l302.exe)
 NPDir=0 NMtPBC=     1 NCelOv=     1 NCel=       1 NClECP=     1 NCelD=      1
         NCelK=      1 NCelE2=     1 NClLst=     1 CellRange=     0.0.
 One-electron integrals computed using PRISM.
 One-electron integral symmetry used in STVInt
 NBasis=    48 RedAO= T  NBF=    12     1     4     7     1    12     7     4
 NBsUse=    48 1.00D-06 NBFU=    12     1     4     7     1    12     7     4
 Precomputing XC quadrature grid using
 IXCGrd= 2 IRadAn=           0 IRanWt=          -1 IRanGd=           0 AccXCQ= 1.00D-10.
 NRdTot=     374 NPtTot=       47012 NUsed=       49721 NTot=       49753
 NSgBfM=    50    50    50    50    50 NAtAll=     6     6.
 Leave Link  302 at Wed Apr 15 21:56:54 2015, MaxMem= 2013265920 cpu:      63.1
 (Enter /opt/g09/l303.exe)
 DipDrv:  MaxL=1.
 Leave Link  303 at Wed Apr 15 21:56:56 2015, MaxMem= 2013265920 cpu:       6.1
 (Enter /opt/g09/l401.exe)
 Harris functional with IExCor=  402 diagonalized for initial guess.
 ExpMin= 1.03D-01 ExpMax= 4.56D+03 ExpMxC= 6.82D+02 IAcc=1 IRadAn=         1 AccDes= 0.00D+00
 HarFok:  IExCor=  402 AccDes= 0.00D+00 IRadAn=         1 IDoV= 1
 ScaDFX=  1.000000  1.000000  1.000000  1.000000
 FoFCou: FMM=F IPFlag=           0 FMFlag=      100000 FMFlg1=           0
         NFxFlg=           0 DoJE=T BraDBF=F KetDBF=T FulRan=T
         Omega=  0.000000  0.000000  1.000000  0.000000  0.000000 ICntrl=     500 IOpCl=  0
         NMat0=    1 NMatS0=    1 NMatT0=    0 NMatD0=    1 NMtDS0=    0 NMtDT0=    0
         I1Cent=           4 NGrid=           0.
 Petite list used in FoFCou.
 Harris En= -78.6525950625123    
 Initial guess orbital symmetries:
       Occupied  (AG) (B1U) (AG) (B1U) (B2U) (AG) (B3G) (B3U)
       Virtual   (B2G) (AG) (B2U) (B1U) (B3G) (B1U) (AG) (B2U)
                 (AG) (B1U) (B3U) (B2G) (B3G) (B2U) (B1U) (AG)
                 (B1U) (B3G) (B1G) (B3U) (B2U) (AG) (AU) (B1U)
                 (AG) (B3G) (B2G) (B1U) (AG) (B2U) (B1U) (B3U)
                 (B3G) (B2G) (AG) (B2U) (B3G) (B1U) (AG) (B1U)
 The electronic state of the initial guess is 1-AG.
 Leave Link  401 at Wed Apr 15 21:57:03 2015, MaxMem= 2013265920 cpu:      46.0
 (Enter /opt/g09/l502.exe)
 Closed shell SCF:
 Requested convergence on RMS density matrix=1.00D-08 within 128 cycles.
 Requested convergence on MAX density matrix=1.00D-06.
 Requested convergence on             energy=1.00D-06.
 No special actions if energy rises.
 Using DIIS extrapolation, IDIIS=  1040.
 Integral symmetry usage will be decided dynamically.
        49654 words used for storage of precomputed grid.
 Keep R1 ints in memory in canonical form, NReq=1758434.
 IEnd=       77180 IEndB=       77180 NGot=  2013265920 MDV=  2012394453
 LenX=  2012394453 LenY=  2012391512
 Symmetry not used in FoFDir.
 MinBra= 0 MaxBra= 2 Meth= 1.
 IRaf=       0 NMat=   1 IRICut=       1 DoRegI=T DoRafI=F ISym2E= 0 JSym2E=0.
 Integral accuracy reduced to 1.0D-05 until final iterations.

 Cycle   1  Pass 0  IDiag  1:
 E= -78.5056801962154    
 DIIS: error= 6.52D-02 at cycle   1 NSaved=   1.
 NSaved= 1 IEnMin= 1 EnMin= -78.5056801962154     IErMin= 1 ErrMin= 6.52D-02
 ErrMax= 6.52D-02 EMaxC= 1.00D-01 BMatC= 9.45D-02 BMatP= 9.45D-02
 IDIUse=3 WtCom= 3.48D-01 WtEn= 6.52D-01
 Coeff-Com:  0.100D+01
 Coeff-En:   0.100D+01
 Coeff:      0.100D+01
 Gap=     0.232 Goal=   None    Shift=    0.000
 GapD=    0.232 DampG=1.000 DampE=0.500 DampFc=0.5000 IDamp=-1.
 Damping current iteration by 5.00D-01
 RMSDP=9.23D-03 MaxDP=1.16D-01              OVMax= 1.79D-01

 Cycle   2  Pass 0  IDiag  1:
 E= -78.5527014172310     Delta-E=       -0.047021221016 Rises=F Damp=T
 DIIS: error= 7.66D-03 at cycle   2 NSaved=   2.
 NSaved= 2 IEnMin= 2 EnMin= -78.5527014172310     IErMin= 2 ErrMin= 7.66D-03
 ErrMax= 7.66D-03 EMaxC= 1.00D-01 BMatC= 2.03D-03 BMatP= 9.45D-02
 IDIUse=3 WtCom= 9.23D-01 WtEn= 7.66D-02
 Coeff-Com:  0.201D-01 0.980D+00
 Coeff-En:   0.536D-01 0.946D+00
 Coeff:      0.226D-01 0.977D+00
 Gap=     0.277 Goal=   None    Shift=    0.000
 RMSDP=1.12D-03 MaxDP=9.53D-03 DE=-4.70D-02 OVMax= 9.19D-02

 Cycle   3  Pass 0  IDiag  1:
 E= -78.6049381474626     Delta-E=       -0.052236730232 Rises=F Damp=F
 DIIS: error= 2.11D-03 at cycle   3 NSaved=   3.
 NSaved= 3 IEnMin= 3 EnMin= -78.6049381474626     IErMin= 3 ErrMin= 2.11D-03
 ErrMax= 2.11D-03 EMaxC= 1.00D-01 BMatC= 8.83D-05 BMatP= 2.03D-03
 IDIUse=3 WtCom= 9.79D-01 WtEn= 2.11D-02
 Coeff-Com: -0.215D-01 0.860D-01 0.936D+00
 Coeff-En:   0.000D+00 0.000D+00 0.100D+01
 Coeff:     -0.211D-01 0.842D-01 0.937D+00
 Gap=     0.272 Goal=   None    Shift=    0.000
 RMSDP=1.75D-04 MaxDP=1.62D-03 DE=-5.22D-02 OVMax= 3.81D-03

 Cycle   4  Pass 0  IDiag  1:
 E= -78.6050285204107     Delta-E=       -0.000090372948 Rises=F Damp=F
 DIIS: error= 3.01D-04 at cycle   4 NSaved=   4.
 NSaved= 4 IEnMin= 4 EnMin= -78.6050285204107     IErMin= 4 ErrMin= 3.01D-04
 ErrMax= 3.01D-04 EMaxC= 1.00D-01 BMatC= 2.16D-06 BMatP= 8.83D-05
 IDIUse=3 WtCom= 9.97D-01 WtEn= 3.01D-03
 Coeff-Com: -0.447D-02 0.837D-02 0.207D+00 0.789D+00
 Coeff-En:   0.000D+00 0.000D+00 0.000D+00 0.100D+01
 Coeff:     -0.446D-02 0.834D-02 0.207D+00 0.790D+00
 Gap=     0.272 Goal=   None    Shift=    0.000
 RMSDP=2.79D-05 MaxDP=3.06D-04 DE=-9.04D-05 OVMax= 4.52D-04

 Cycle   5  Pass 0  IDiag  1:
 E= -78.6050304191980     Delta-E=       -0.000001898787 Rises=F Damp=F
 DIIS: error= 2.14D-05 at cycle   5 NSaved=   5.
 NSaved= 5 IEnMin= 5 EnMin= -78.6050304191980     IErMin= 5 ErrMin= 2.14D-05
 ErrMax= 2.14D-05 EMaxC= 1.00D-01 BMatC= 8.39D-09 BMatP= 2.16D-06
 IDIUse=1 WtCom= 1.00D+00 WtEn= 0.00D+00
 Coeff-Com:  0.253D-03-0.120D-02-0.382D-02 0.288D-01 0.976D+00
 Coeff:      0.253D-03-0.120D-02-0.382D-02 0.288D-01 0.976D+00
 Gap=     0.272 Goal=   None    Shift=    0.000
 RMSDP=1.86D-06 MaxDP=1.43D-05 DE=-1.90D-06 OVMax= 4.01D-05

 Initial convergence to 1.0D-05 achieved.  Increase integral accuracy.
 Cycle   6  Pass 1  IDiag  1:
 E= -78.6050612815539     Delta-E=       -0.000030862356 Rises=F Damp=F
 DIIS: error= 6.12D-06 at cycle   1 NSaved=   1.
 NSaved= 1 IEnMin= 1 EnMin= -78.6050612815539     IErMin= 1 ErrMin= 6.12D-06
 ErrMax= 6.12D-06 EMaxC= 1.00D-01 BMatC= 6.51D-10 BMatP= 6.51D-10
 IDIUse=1 WtCom= 1.00D+00 WtEn= 0.00D+00
 Coeff-Com:  0.100D+01
 Coeff:      0.100D+01
 Gap=     0.272 Goal=   None    Shift=    0.000
 RMSDP=1.86D-06 MaxDP=1.43D-05 DE=-3.09D-05 OVMax= 2.11D-05

 Cycle   7  Pass 1  IDiag  1:
 E= -78.6050612826614     Delta-E=       -0.000000001108 Rises=F Damp=F
 DIIS: error= 1.29D-06 at cycle   2 NSaved=   2.
 NSaved= 2 IEnMin= 2 EnMin= -78.6050612826614     IErMin= 2 ErrMin= 1.29D-06
 ErrMax= 1.29D-06 EMaxC= 1.00D-01 BMatC= 4.31D-11 BMatP= 6.51D-10
 IDIUse=1 WtCom= 1.00D+00 WtEn= 0.00D+00
 Coeff-Com:  0.428D-01 0.957D+00
 Coeff:      0.428D-01 0.957D+00
 Gap=     0.272 Goal=   None    Shift=    0.000
 RMSDP=1.72D-07 MaxDP=2.26D-06 DE=-1.11D-09 OVMax= 3.89D-06

 Cycle   8  Pass 1  IDiag  1:
 E= -78.6050612826714     Delta-E=       -0.000000000010 Rises=F Damp=F
 DIIS: error= 1.17D-06 at cycle   3 NSaved=   3.
 NSaved= 3 IEnMin= 3 EnMin= -78.6050612826714     IErMin= 3 ErrMin= 1.17D-06
 ErrMax= 1.17D-06 EMaxC= 1.00D-01 BMatC= 3.39D-11 BMatP= 4.31D-11
 IDIUse=1 WtCom= 1.00D+00 WtEn= 0.00D+00
 Coeff-Com: -0.343D-01 0.482D+00 0.552D+00
 Coeff:     -0.343D-01 0.482D+00 0.552D+00
 Gap=     0.272 Goal=   None    Shift=    0.000
 RMSDP=9.26D-08 MaxDP=1.10D-06 DE=-1.00D-11 OVMax= 1.80D-06

 Cycle   9  Pass 1  IDiag  1:
 E= -78.6050612827071     Delta-E=       -0.000000000036 Rises=F Damp=F
 DIIS: error= 3.89D-08 at cycle   4 NSaved=   4.
 NSaved= 4 IEnMin= 4 EnMin= -78.6050612827071     IErMin= 4 ErrMin= 3.89D-08
 ErrMax= 3.89D-08 EMaxC= 1.00D-01 BMatC= 2.95D-14 BMatP= 3.39D-11
 IDIUse=1 WtCom= 1.00D+00 WtEn= 0.00D+00
 Coeff-Com:  0.333D-03-0.178D-01 0.916D-02 0.101D+01
 Coeff:      0.333D-03-0.178D-01 0.916D-02 0.101D+01
 Gap=     0.272 Goal=   None    Shift=    0.000
 RMSDP=3.06D-09 MaxDP=2.58D-08 DE=-3.57D-11 OVMax= 7.17D-08

 SCF Done:  E(RB3LYP) =  -78.6050612827     A.U. after    9 cycles
             Convg  =    0.3058D-08             -V/T =  2.0043
 KE= 7.826656647006D+01 PE=-2.484858680573D+02 EE= 5.830035947321D+01
 Leave Link  502 at Wed Apr 15 21:58:27 2015, MaxMem= 2013265920 cpu:     563.7
 (Enter /opt/g09/l601.exe)
 Copying SCF densities to generalized density rwf, IOpCl= 0 IROHF=0.

 **********************************************************************

            Population analysis using the SCF density.

 **********************************************************************

 Orbital symmetries:
       Occupied  (AG) (B1U) (AG) (B1U) (B2U) (AG) (B3G) (B3U)
       Virtual   (B2G) (AG) (B2U) (B1U) (B3G) (B1U) (AG) (B2U)
                 (AG) (B3U) (B1U) (B2G) (B2U) (B3G) (B1U) (AG)
                 (B3G) (B1U) (B1G) (B3U) (B2U) (AG) (AU) (B1U)
                 (AG) (B3G) (B2G) (B1U) (AG) (B2U) (B1U) (B3U)
                 (B3G) (B2G) (AG) (B2U) (B3G) (B1U) (AG) (B1U)
 The electronic state is 1-AG.
 Alpha  occ. eigenvalues --  -10.16874 -10.16805  -0.76076  -0.58651  -0.47985
 Alpha  occ. eigenvalues --   -0.41653  -0.36998  -0.27169
 Alpha virt. eigenvalues --    0.00029   0.06165   0.08965   0.09392   0.15853
 Alpha virt. eigenvalues --    0.28924   0.30015   0.32925   0.39414   0.40945
 Alpha virt. eigenvalues --    0.41503   0.50243   0.59112   0.62395   0.68765
 Alpha virt. eigenvalues --    0.69173   0.77478   0.80926   1.15234   1.18286
 Alpha virt. eigenvalues --    1.38116   1.40890   1.44791   1.62753   1.65986
 Alpha virt. eigenvalues --    1.86428   1.94158   2.14237   2.18029   2.32373
 Alpha virt. eigenvalues --    2.40833   2.58092   2.65197   2.81258   3.13697
 Alpha virt. eigenvalues --    3.14293   3.30224   3.70040  23.27819  24.09782
          Condensed to atoms (all electrons):
              1          2          3          4          5          6
     1  C    5.081094   0.629012   0.392073   0.392073  -0.039722  -0.039722
     2  C    0.629012   5.081094  -0.039722  -0.039722   0.392073   0.392073
     3  H    0.392073  -0.039722   0.480283  -0.036699   0.006794  -0.010133
     4  H    0.392073  -0.039722  -0.036699   0.480283  -0.010133   0.006794
     5  H   -0.039722   0.392073   0.006794  -0.010133   0.480283  -0.036699
     6  H   -0.039722   0.392073  -0.010133   0.006794  -0.036699   0.480283
 Mulliken atomic charges:
              1
     1  C   -0.414808
     2  C   -0.414808
     3  H    0.207404
     4  H    0.207404
     5  H    0.207404
     6  H    0.207404
 Sum of Mulliken atomic charges =   0.00000
 Mulliken charges with hydrogens summed into heavy atoms:
              1
     1  C    0.000000
     2  C    0.000000
 Sum of Mulliken charges with hydrogens summed into heavy atoms =   0.00000
 Electronic spatial extent (au):  <R**2>=             82.7958
 Charge=              0.0000 electrons
 Dipole moment (field-independent basis, Debye):
    X=              0.0000    Y=              0.0000    Z=              0.0000  Tot=              0.0000
 Quadrupole moment (field-independent basis, Debye-Ang):
   XX=            -15.6526   YY=            -12.0907   ZZ=            -12.4075
   XY=              0.0000   XZ=              0.0000   YZ=              0.0000
 Traceless Quadrupole moment (field-independent basis, Debye-Ang):
   XX=             -2.2690   YY=              1.2929   ZZ=              0.9761
   XY=              0.0000   XZ=              0.0000   YZ=              0.0000
 Octapole moment (field-independent basis, Debye-Ang**2):
  XXX=              0.0000  YYY=              0.0000  ZZZ=              0.0000  XYY=              0.0000
  XXY=              0.0000  XXZ=              0.0000  XZZ=              0.0000  YZZ=              0.0000
  YYZ=              0.0000  XYZ=              0.0000
 Hexadecapole moment (field-independent basis, Debye-Ang**3):
 XXXX=            -18.1708 YYYY=            -26.4965 ZZZZ=            -69.4255 XXXY=              0.0000
 XXXZ=              0.0000 YYYX=              0.0000 YYYZ=              0.0000 ZZZX=              0.0000
 ZZZY=              0.0000 XXYY=             -8.1236 XXZZ=            -15.4385 YYZZ=            -13.3898
 XXYZ=              0.0000 YYXZ=              0.0000 ZZXY=              0.0000
 N-N= 3.331388083133D+01 E-N=-2.484858694292D+02  KE= 7.826656647006D+01
 Symmetry AG   KE= 3.758558713342D+01
 Symmetry B1G  KE= 3.457871326397D-34
 Symmetry B2G  KE= 3.292766467092D-32
 Symmetry B3G  KE= 2.158201387079D+00
 Symmetry AU   KE= 4.429545388795D-34
 Symmetry B1U  KE= 3.452474442435D+01
 Symmetry B2U  KE= 1.918065440945D+00
 Symmetry B3U  KE= 2.079968084270D+00
 No NMR shielding tensors so no spin-rotation constants.
 Leave Link  601 at Wed Apr 15 21:58:34 2015, MaxMem= 2013265920 cpu:      46.0
 (Enter /opt/g09/l701.exe)
 Compute integral first derivatives.
 ... and contract with generalized density number  0.
 Leave Link  701 at Wed Apr 15 21:58:39 2015, MaxMem= 2013265920 cpu:      32.3
 (Enter /opt/g09/l702.exe)
 L702 exits ... SP integral derivatives will be done elsewhere.
 Leave Link  702 at Wed Apr 15 21:58:39 2015, MaxMem= 2013265920 cpu:       0.9
 (Enter /opt/g09/l703.exe)
 Compute integral first derivatives, UseDBF=F ICtDFT=           0.
 Integral derivatives from FoFDir, PRISM(SPDF).
 Calling FoFJK, ICntrl=      2127 FMM=F ISym2X=1 I1Cent= 0 IOpClX= 0 NMat=1 NMatS=1 NMatT=0.
 FoFCou: FMM=F IPFlag=           0 FMFlag=      100000 FMFlg1=         800
         NFxFlg=           0 DoJE=F BraDBF=F KetDBF=F FulRan=T
         Omega=  0.000000  0.000000  1.000000  0.000000  0.000000 ICntrl=    2127 IOpCl=  0
         NMat0=    1 NMatS0=    1 NMatT0=    0 NMatD0=    1 NMtDS0=    0 NMtDT0=    0
         I1Cent=           0 NGrid=           0.
 Petite list used in FoFCou.
 Leave Link  703 at Wed Apr 15 21:58:44 2015, MaxMem= 2013265920 cpu:      29.2
 (Enter /opt/g09/l716.exe)
 Dipole        =-7.40690856D-17 2.22044605D-16 8.88178420D-16
 ***** Axes restored to original set *****
 -------------------------------------------------------------------
 Center     Atomic                   Forces (Hartrees/Bohr)
 Number     Number              X              Y              Z
 -------------------------------------------------------------------
      1        6           0.044209916    0.000000000    0.000000000
      2        6          -0.044209916    0.000000000    0.000000000
      3        1          -0.008894073    0.006792035    0.000000000
      4        1          -0.008894073   -0.006792035    0.000000000
      5        1           0.008894073   -0.006792035    0.000000000
      6        1           0.008894073    0.006792035    0.000000000
 -------------------------------------------------------------------
 Cartesian Forces:  Max     0.044209916 RMS     0.015652437
 Leave Link  716 at Wed Apr 15 21:58:44 2015, MaxMem= 2013265920 cpu:       1.0
 (Enter /opt/g09/l103.exe)

 GradGradGradGradGradGradGradGradGradGradGradGradGradGradGradGradGradGrad
 Berny optimization.
 Internal  Forces:  Max     0.026421769 RMS     0.009040543
 Search for a local minimum.
 Step number   1 out of a maximum of   25
 All quantities printed in internal units (Hartrees-Bohrs-Radians)
 RMS Force = .90405D-02 SwitMx=.10000D-02 MixMth= 1
 Mixed Optimization -- RFO/linear search
 Second derivative matrix not updated -- first step.
 The second derivative matrix:
                          R1        R2        R3        R4        R5
           R1           0.53930
           R2           0.00000   0.37230
           R3           0.00000   0.00000   0.37230
           R4           0.00000   0.00000   0.00000   0.37230
           R5           0.00000   0.00000   0.00000   0.00000   0.37230
           A1           0.00000   0.00000   0.00000   0.00000   0.00000
           A2           0.00000   0.00000   0.00000   0.00000   0.00000
           A3           0.00000   0.00000   0.00000   0.00000   0.00000
           A4           0.00000   0.00000   0.00000   0.00000   0.00000
           A5           0.00000   0.00000   0.00000   0.00000   0.00000
           A6           0.00000   0.00000   0.00000   0.00000   0.00000
           D1           0.00000   0.00000   0.00000   0.00000   0.00000
           D2           0.00000   0.00000   0.00000   0.00000   0.00000
           D3           0.00000   0.00000   0.00000   0.00000   0.00000
           D4           0.00000   0.00000   0.00000   0.00000   0.00000
                          A1        A2        A3        A4        A5
           A1           0.16000
           A2           0.00000   0.16000
           A3           0.00000   0.00000   0.16000
           A4           0.00000   0.00000   0.00000   0.16000
           A5           0.00000   0.00000   0.00000   0.00000   0.16000
           A6           0.00000   0.00000   0.00000   0.00000   0.00000
           D1           0.00000   0.00000   0.00000   0.00000   0.00000
           D2           0.00000   0.00000   0.00000   0.00000   0.00000
           D3           0.00000   0.00000   0.00000   0.00000   0.00000
           D4           0.00000   0.00000   0.00000   0.00000   0.00000
                          A6        D1        D2        D3        D4
           A6           0.16000
           D1           0.00000   0.02681
           D2           0.00000   0.00000   0.02681
           D3           0.00000   0.00000   0.00000   0.02681
           D4           0.00000   0.00000   0.00000   0.00000   0.02681
     Eigenvalues ---    0.02681   0.02681   0.02681   0.16000   0.16000
     Eigenvalues ---    0.16000   0.16000   0.37230   0.37230   0.37230
     Eigenvalues ---    0.37230   0.539301000.000001000.000001000.00000
 RFO step:  Lambda=-3.04427530D-03 EMin= 2.68137385D-02
 Linear search not attempted -- first point.
 Iteration  1 RMS(Cart)=  0.01417998 RMS(Int)=  0.00027027
 Iteration  2 RMS(Cart)=  0.00030270 RMS(Int)=  0.00000004
 Iteration  3 RMS(Cart)=  0.00000005 RMS(Int)=  0.00000000
 ClnCor:  largest displacement from symmetrization is 3.57D-13 for atom     1.
 Variable       Old X    -DE/DX   Delta X   Delta X   Delta X     New X
                                 (Linear)    (Quad)   (Total)
    R1        2.56096  -0.02642   0.00000  -0.04872  -0.04872   2.51224
    R2        2.02201   0.01033   0.00000   0.02752   0.02752   2.04953
    R3        2.02201   0.01033   0.00000   0.02752   0.02752   2.04953
    R4        2.02201   0.01033   0.00000   0.02752   0.02752   2.04953
    R5        2.02201   0.01033   0.00000   0.02752   0.02752   2.04953
    A1        2.09440   0.00290   0.00000   0.01780   0.01780   2.11220
    A2        2.09440   0.00290   0.00000   0.01780   0.01780   2.11220
    A3        2.09440  -0.00581   0.00000  -0.03560  -0.03560   2.05879
    A4        2.09440   0.00290   0.00000   0.01780   0.01780   2.11220
    A5        2.09440   0.00290   0.00000   0.01780   0.01780   2.11220
    A6        2.09440  -0.00581   0.00000  -0.03560  -0.03560   2.05879
    D1        3.14159   0.00000   0.00000   0.00000   0.00000   3.14159
    D2        0.00000   0.00000   0.00000   0.00000   0.00000   0.00000
    D3        0.00000   0.00000   0.00000   0.00000   0.00000   0.00000
    D4        3.14159   0.00000   0.00000   0.00000   0.00000   3.14159
         Item               Value     Threshold  Converged?
 Maximum Force            0.026422     0.000450     NO 
 RMS     Force            0.009041     0.000300     NO 
 Maximum Displacement     0.024359     0.001800     NO 
 RMS     Displacement     0.014226     0.001200     NO 
 Predicted change in Energy=-1.536149D-03
 GradGradGradGradGradGradGradGradGradGradGradGradGradGradGradGradGradGrad

 Leave Link  103 at Wed Apr 15 21:58:48 2015, MaxMem= 2013265920 cpu:      29.0
 (Enter /opt/g09/l202.exe)
                          Input orientation:                          
 ---------------------------------------------------------------------
 Center     Atomic      Atomic             Coordinates (Angstroms)
 Number     Number       Type             X           Y           Z
 ---------------------------------------------------------------------
      1          6           0       -0.664710    0.000000    0.000000
      2          6           0        0.664710    0.000000    0.000000
      3          1           0       -1.223625    0.929456    0.000000
      4          1           0       -1.223625   -0.929456    0.000000
      5          1           0        1.223625   -0.929456    0.000000
      6          1           0        1.223625    0.929456    0.000000
 ---------------------------------------------------------------------
                    Distance matrix (angstroms):
                    1          2          3          4          5
     1  C    0.000000
     2  C    1.329420   0.000000
     3  H    1.084562   2.104685   0.000000
     4  H    1.084562   2.104685   1.858913   0.000000
     5  H    2.104685   1.084562   3.073205   2.447250   0.000000
     6  H    2.104685   1.084562   2.447250   3.073205   1.858913
                    6
     6  H    0.000000
 Stoichiometry    C2H4
 Framework group  D2H[C2"(C.C),SG(H4)]
 Deg. of freedom     3
 Full point group                 D2H     NOp   8
 Largest Abelian subgroup         D2H     NOp   8
 Largest concise Abelian subgroup D2      NOp   4
                         Standard orientation:                         
 ---------------------------------------------------------------------
 Center     Atomic      Atomic             Coordinates (Angstroms)
 Number     Number       Type             X           Y           Z
 ---------------------------------------------------------------------
      1          6           0        0.000000    0.000000    0.664710
      2          6           0        0.000000    0.000000   -0.664710
      3          1           0        0.000000    0.929456    1.223625
      4          1           0        0.000000   -0.929456    1.223625
      5          1           0        0.000000   -0.929456   -1.223625
      6          1           0        0.000000    0.929456   -1.223625
 ---------------------------------------------------------------------
 Rotational constants (GHZ):    145.1155789     30.3712665     25.1149532
 Leave Link  202 at Wed Apr 15 21:58:49 2015, MaxMem= 2013265920 cpu:       2.8
 (Enter /opt/g09/l301.exe)
 Standard basis: 6-311G(d) (5D, 7F)
 Ernie: Thresh=  0.10000D-02 Tol=  0.10000D-05 Strict=F.
 There are    12 symmetry adapted basis functions of AG  symmetry.
 There are     1 symmetry adapted basis functions of B1G symmetry.
 There are     4 symmetry adapted basis functions of B2G symmetry.
 There are     7 symmetry adapted basis functions of B3G symmetry.
 There are     1 symmetry adapted basis functions of AU  symmetry.
 There are    12 symmetry adapted basis functions of B1U symmetry.
 There are     7 symmetry adapted basis functions of B2U symmetry.
 There are     4 symmetry adapted basis functions of B3U symmetry.
 Integral buffers will be    131072 words long.
 Raffenetti 2 integral format.
 Two-electron integral symmetry is turned on.
    48 basis functions,    84 primitive gaussians,    50 cartesian basis functions
     8 alpha electrons        8 beta electrons
       nuclear repulsion energy        33.4203390184 Hartrees.
 IExCor=  402 DFT=T Ex+Corr=B3LYP ExCW=0 ScaHFX=  0.200000
 ScaDFX=  0.800000  0.720000  1.000000  0.810000 ScalE2=  1.000000  1.000000
 IRadAn=      0 IRanWt=     -1 IRanGd=            0 ICorTp=0
 NAtoms=    6 NActive=    6 NUniq=    2 SFac= 3.00D+00 NAtFMM=   80 NAOKFM=F Big=F
 Leave Link  301 at Wed Apr 15 21:58:49 2015, MaxMem= 2013265920 cpu:       1.5
 (Enter /opt/g09/l302.exe)
 NPDir=0 NMtPBC=     1 NCelOv=     1 NCel=       1 NClECP=     1 NCelD=      1
         NCelK=      1 NCelE2=     1 NClLst=     1 CellRange=     0.0.
 One-electron integrals computed using PRISM.
 One-electron integral symmetry used in STVInt
 NBasis=    48 RedAO= T  NBF=    12     1     4     7     1    12     7     4
 NBsUse=    48 1.00D-06 NBFU=    12     1     4     7     1    12     7     4
 Precomputing XC quadrature grid using
 IXCGrd= 2 IRadAn=           0 IRanWt=          -1 IRanGd=           0 AccXCQ= 1.00D-10.
 NRdTot=     374 NPtTot=       47012 NUsed=       49721 NTot=       49753
 NSgBfM=    50    50    50    50    50 NAtAll=     6     6.
 Leave Link  302 at Wed Apr 15 21:58:58 2015, MaxMem= 2013265920 cpu:      60.9
 (Enter /opt/g09/l303.exe)
 DipDrv:  MaxL=1.
 Leave Link  303 at Wed Apr 15 21:58:59 2015, MaxMem= 2013265920 cpu:       7.1
 (Enter /opt/g09/l401.exe)
 Initial guess read from the read-write file.
 B after Tr=     0.000000    0.000000    0.000000
         Rot=    1.000000    0.000000    0.000000    0.000000 Ang=   0.00 deg.
 Guess basis will be translated and rotated to current coordinates.
 Initial guess orbital symmetries:
       Occupied  (AG) (B1U) (AG) (B1U) (B2U) (AG) (B3G) (B3U)
       Virtual   (B2G) (AG) (B2U) (B1U) (B3G) (B1U) (AG) (B2U)
                 (AG) (B3U) (B1U) (B2G) (B2U) (B3G) (B1U) (AG)
                 (B3G) (B1U) (B1G) (B3U) (B2U) (AG) (AU) (B1U)
                 (AG) (B3G) (B2G) (B1U) (AG) (B2U) (B1U) (B3U)
                 (B3G) (B2G) (AG) (B2U) (B3G) (B1U) (AG) (B1U)
 The electronic state of the initial guess is 1-AG.
 Generating alternative initial guess.
 Harris functional with IExCor=  402 diagonalized for initial guess.
 ExpMin= 1.03D-01 ExpMax= 4.56D+03 ExpMxC= 6.82D+02 IAcc=1 IRadAn=         1 AccDes= 0.00D+00
 HarFok:  IExCor=  402 AccDes= 0.00D+00 IRadAn=         1 IDoV= 1
 ScaDFX=  1.000000  1.000000  1.000000  1.000000
 FoFCou: FMM=F IPFlag=           0 FMFlag=      100000 FMFlg1=           0
         NFxFlg=           0 DoJE=T BraDBF=F KetDBF=T FulRan=T
         Omega=  0.000000  0.000000  1.000000  0.000000  0.000000 ICntrl=     500 IOpCl=  0
         NMat0=    1 NMatS0=    1 NMatT0=    0 NMatD0=    1 NMtDS0=    0 NMtDT0=    0
         I1Cent=           4 NGrid=           0.
 Petite list used in FoFCou.
 Harris En= -78.6546948729083    
 Leave Link  401 at Wed Apr 15 21:59:09 2015, MaxMem= 2013265920 cpu:      67.2
 (Enter /opt/g09/l502.exe)
 Closed shell SCF:
 Requested convergence on RMS density matrix=1.00D-08 within 128 cycles.
 Requested convergence on MAX density matrix=1.00D-06.
 Requested convergence on             energy=1.00D-06.
 No special actions if energy rises.
 Using DIIS extrapolation, IDIIS=  1040.
 Integral symmetry usage will be decided dynamically.
        49654 words used for storage of precomputed grid.
 Keep R1 ints in memory in canonical form, NReq=1758434.
 IEnd=       77180 IEndB=       77180 NGot=  2013265920 MDV=  2012394453
 LenX=  2012394453 LenY=  2012391512
 Symmetry not used in FoFDir.
 MinBra= 0 MaxBra= 2 Meth= 1.
 IRaf=       0 NMat=   1 IRICut=       1 DoRegI=T DoRafI=F ISym2E= 0 JSym2E=0.
 Integral accuracy reduced to 1.0D-05 until final iterations.

 Cycle   1  Pass 0  IDiag  1:
 E= -78.6063435467360    
 DIIS: error= 3.55D-03 at cycle   1 NSaved=   1.
 NSaved= 1 IEnMin= 1 EnMin= -78.6063435467360     IErMin= 1 ErrMin= 3.55D-03
 ErrMax= 3.55D-03 EMaxC= 1.00D-01 BMatC= 3.98D-04 BMatP= 3.98D-04
 IDIUse=3 WtCom= 9.64D-01 WtEn= 3.55D-02
 Coeff-Com:  0.100D+01
 Coeff-En:   0.100D+01
 Coeff:      0.100D+01
 Gap=     0.282 Goal=   None    Shift=    0.000
 GapD=    0.282 DampG=1.000 DampE=1.000 DampFc=1.0000 IDamp=-1.
 RMSDP=4.18D-04 MaxDP=4.44D-03              OVMax= 9.77D-03

 Cycle   2  Pass 0  IDiag  1:
 E= -78.6067807109244     Delta-E=       -0.000437164188 Rises=F Damp=F
 DIIS: error= 6.53D-04 at cycle   2 NSaved=   2.
 NSaved= 2 IEnMin= 2 EnMin= -78.6067807109244     IErMin= 2 ErrMin= 6.53D-04
 ErrMax= 6.53D-04 EMaxC= 1.00D-01 BMatC= 7.60D-06 BMatP= 3.98D-04
 IDIUse=3 WtCom= 9.93D-01 WtEn= 6.53D-03
 Coeff-Com:  0.121D-01 0.988D+00
 Coeff-En:   0.000D+00 0.100D+01
 Coeff:      0.121D-01 0.988D+00
 Gap=     0.282 Goal=   None    Shift=    0.000
 RMSDP=7.55D-05 MaxDP=6.96D-04 DE=-4.37D-04 OVMax= 1.66D-03

 Cycle   3  Pass 0  IDiag  1:
 E= -78.6067845249069     Delta-E=       -0.000003813983 Rises=F Damp=F
 DIIS: error= 3.92D-04 at cycle   3 NSaved=   3.
 NSaved= 3 IEnMin= 3 EnMin= -78.6067845249069     IErMin= 3 ErrMin= 3.92D-04
 ErrMax= 3.92D-04 EMaxC= 1.00D-01 BMatC= 4.00D-06 BMatP= 7.60D-06
 IDIUse=3 WtCom= 9.96D-01 WtEn= 3.92D-03
 Coeff-Com: -0.787D-02 0.410D+00 0.598D+00
 Coeff-En:   0.000D+00 0.281D+00 0.719D+00
 Coeff:     -0.784D-02 0.409D+00 0.598D+00
 Gap=     0.282 Goal=   None    Shift=    0.000
 RMSDP=3.51D-05 MaxDP=4.71D-04 DE=-3.81D-06 OVMax= 6.85D-04

 Cycle   4  Pass 0  IDiag  1:
 E= -78.6067885396642     Delta-E=       -0.000004014757 Rises=F Damp=F
 DIIS: error= 8.23D-05 at cycle   4 NSaved=   4.
 NSaved= 4 IEnMin= 4 EnMin= -78.6067885396642     IErMin= 4 ErrMin= 8.23D-05
 ErrMax= 8.23D-05 EMaxC= 1.00D-01 BMatC= 2.20D-07 BMatP= 4.00D-06
 IDIUse=1 WtCom= 1.00D+00 WtEn= 0.00D+00
 Coeff-Com: -0.369D-02 0.712D-01 0.220D+00 0.713D+00
 Coeff:     -0.369D-02 0.712D-01 0.220D+00 0.713D+00
 Gap=     0.282 Goal=   None    Shift=    0.000
 RMSDP=7.69D-06 MaxDP=6.85D-05 DE=-4.01D-06 OVMax= 1.45D-04

 Initial convergence to 1.0D-05 achieved.  Increase integral accuracy.
 Cycle   5  Pass 1  IDiag  1:
 E= -78.6068155438538     Delta-E=       -0.000027004190 Rises=F Damp=F
 DIIS: error= 8.30D-06 at cycle   1 NSaved=   1.
 NSaved= 1 IEnMin= 1 EnMin= -78.6068155438538     IErMin= 1 ErrMin= 8.30D-06
 ErrMax= 8.30D-06 EMaxC= 1.00D-01 BMatC= 2.42D-09 BMatP= 2.42D-09
 IDIUse=1 WtCom= 1.00D+00 WtEn= 0.00D+00
 Coeff-Com:  0.100D+01
 Coeff:      0.100D+01
 Gap=     0.282 Goal=   None    Shift=    0.000
 RMSDP=7.69D-06 MaxDP=6.85D-05 DE=-2.70D-05 OVMax= 3.36D-05

 Cycle   6  Pass 1  IDiag  1:
 E= -78.6068155452433     Delta-E=       -0.000000001390 Rises=F Damp=F
 DIIS: error= 7.31D-06 at cycle   2 NSaved=   2.
 NSaved= 2 IEnMin= 2 EnMin= -78.6068155452433     IErMin= 2 ErrMin= 7.31D-06
 ErrMax= 7.31D-06 EMaxC= 1.00D-01 BMatC= 1.46D-09 BMatP= 2.42D-09
 IDIUse=1 WtCom= 1.00D+00 WtEn= 0.00D+00
 Coeff-Com:  0.429D+00 0.571D+00
 Coeff:      0.429D+00 0.571D+00
 Gap=     0.282 Goal=   None    Shift=    0.000
 RMSDP=6.40D-07 MaxDP=7.10D-06 DE=-1.39D-09 OVMax= 1.31D-05

 Cycle   7  Pass 1  IDiag  1:
 E= -78.6068155466482     Delta-E=       -0.000000001405 Rises=F Damp=F
 DIIS: error= 1.67D-06 at cycle   3 NSaved=   3.
 NSaved= 3 IEnMin= 3 EnMin= -78.6068155466482     IErMin= 3 ErrMin= 1.67D-06
 ErrMax= 1.67D-06 EMaxC= 1.00D-01 BMatC= 5.43D-11 BMatP= 1.46D-09
 IDIUse=1 WtCom= 1.00D+00 WtEn= 0.00D+00
 Coeff-Com:  0.648D-01 0.182D+00 0.753D+00
 Coeff:      0.648D-01 0.182D+00 0.753D+00
 Gap=     0.282 Goal=   None    Shift=    0.000
 RMSDP=1.28D-07 MaxDP=1.59D-06 DE=-1.40D-09 OVMax= 2.70D-06

 Cycle   8  Pass 1  IDiag  1:
 E= -78.6068155467039     Delta-E=       -0.000000000056 Rises=F Damp=F
 DIIS: error= 2.27D-07 at cycle   4 NSaved=   4.
 NSaved= 4 IEnMin= 4 EnMin= -78.6068155467039     IErMin= 4 ErrMin= 2.27D-07
 ErrMax= 2.27D-07 EMaxC= 1.00D-01 BMatC= 1.19D-12 BMatP= 5.43D-11
 IDIUse=1 WtCom= 1.00D+00 WtEn= 0.00D+00
 Coeff-Com: -0.755D-02-0.294D-02 0.131D+00 0.879D+00
 Coeff:     -0.755D-02-0.294D-02 0.131D+00 0.879D+00
 Gap=     0.282 Goal=   None    Shift=    0.000
 RMSDP=2.00D-08 MaxDP=2.38D-07 DE=-5.57D-11 OVMax= 3.80D-07

 Cycle   9  Pass 1  IDiag  1:
 E= -78.6068155467052     Delta-E=       -0.000000000001 Rises=F Damp=F
 DIIS: error= 7.16D-09 at cycle   5 NSaved=   5.
 NSaved= 5 IEnMin= 5 EnMin= -78.6068155467052     IErMin= 5 ErrMin= 7.16D-09
 ErrMax= 7.16D-09 EMaxC= 1.00D-01 BMatC= 8.83D-16 BMatP= 1.19D-12
 IDIUse=1 WtCom= 1.00D+00 WtEn= 0.00D+00
 Coeff-Com:  0.581D-04-0.113D-02-0.788D-02-0.184D-01 0.103D+01
 Coeff:      0.581D-04-0.113D-02-0.788D-02-0.184D-01 0.103D+01
 Gap=     0.282 Goal=   None    Shift=    0.000
 RMSDP=5.70D-10 MaxDP=6.76D-09 DE=-1.28D-12 OVMax= 1.96D-08

 SCF Done:  E(RB3LYP) =  -78.6068155467     A.U. after    9 cycles
             Convg  =    0.5702D-09             -V/T =  2.0045
 KE= 7.825278547281D+01 PE=-2.486963677271D+02 EE= 5.841642768913D+01
 Leave Link  502 at Wed Apr 15 22:00:30 2015, MaxMem= 2013265920 cpu:     582.0
 (Enter /opt/g09/l701.exe)
 Compute integral first derivatives.
 ... and contract with generalized density number  0.
 Leave Link  701 at Wed Apr 15 22:00:35 2015, MaxMem= 2013265920 cpu:      32.3
 (Enter /opt/g09/l702.exe)
 L702 exits ... SP integral derivatives will be done elsewhere.
 Leave Link  702 at Wed Apr 15 22:00:36 2015, MaxMem= 2013265920 cpu:       0.8
 (Enter /opt/g09/l703.exe)
 Compute integral first derivatives, UseDBF=F ICtDFT=           0.
 Integral derivatives from FoFDir, PRISM(SPDF).
 Calling FoFJK, ICntrl=      2127 FMM=F ISym2X=1 I1Cent= 0 IOpClX= 0 NMat=1 NMatS=1 NMatT=0.
 FoFCou: FMM=F IPFlag=           0 FMFlag=      100000 FMFlg1=         800
         NFxFlg=           0 DoJE=F BraDBF=F KetDBF=F FulRan=T
         Omega=  0.000000  0.000000  1.000000  0.000000  0.000000 ICntrl=    2127 IOpCl=  0
         NMat0=    1 NMatS0=    1 NMatT0=    0 NMatD0=    1 NMtDS0=    0 NMtDT0=    0
         I1Cent=           0 NGrid=           0.
 Petite list used in FoFCou.
 Leave Link  703 at Wed Apr 15 22:00:41 2015, MaxMem= 2013265920 cpu:      30.1
 (Enter /opt/g09/l716.exe)
 Dipole        =-7.13129675D-17 0.00000000D+00 0.00000000D+00
 ***** Axes restored to original set *****
 -------------------------------------------------------------------
 Center     Atomic                   Forces (Hartrees/Bohr)
 Number     Number              X              Y              Z
 -------------------------------------------------------------------
      1        6           0.005475033    0.000000000    0.000000000
      2        6          -0.005475033    0.000000000    0.000000000
      3        1          -0.002296555   -0.000651808    0.000000000
      4        1          -0.002296555    0.000651808    0.000000000
      5        1           0.002296555    0.000651808    0.000000000
      6        1           0.002296555   -0.000651808    0.000000000
 -------------------------------------------------------------------
 Cartesian Forces:  Max     0.005475033 RMS     0.002144088
 Leave Link  716 at Wed Apr 15 22:00:41 2015, MaxMem= 2013265920 cpu:       0.8
 (Enter /opt/g09/l103.exe)

 GradGradGradGradGradGradGradGradGradGradGradGradGradGradGradGradGradGrad
 Berny optimization.
 Using GEDIIS/GDIIS optimizer.
 Internal  Forces:  Max     0.003148100 RMS     0.001462223
 Search for a local minimum.
 Step number   2 out of a maximum of   25
 All quantities printed in internal units (Hartrees-Bohrs-Radians)
 RMS Force = .14622D-02 SwitMx=.10000D-02 MixMth= 1
 Mixed Optimization -- RFO/linear search
 Update second derivatives using D2CorX and points    1    2
 DE= -1.75D-03 DEPred=-1.54D-03 R= 1.14D+00
 SS=  1.41D+00  RLast= 9.59D-02 DXNew= 5.0454D-01 2.8784D-01
 Trust test= 1.14D+00 RLast= 9.59D-02 DXMaxT set to 3.00D-01
 The second derivative matrix:
                          R1        R2        R3        R4        R5
           R1           0.56168
           R2          -0.00622   0.37377
           R3          -0.00622   0.00147   0.37377
           R4          -0.00622   0.00147   0.00147   0.37377
           R5          -0.00622   0.00147   0.00147   0.00147   0.37377
           A1           0.01174  -0.00471  -0.00471  -0.00471  -0.00471
           A2           0.01174  -0.00471  -0.00471  -0.00471  -0.00471
           A3          -0.02348   0.00942   0.00942   0.00942   0.00942
           A4           0.01174  -0.00471  -0.00471  -0.00471  -0.00471
           A5           0.01174  -0.00471  -0.00471  -0.00471  -0.00471
           A6          -0.02348   0.00942   0.00942   0.00942   0.00942
           D1           0.00000   0.00000   0.00000   0.00000   0.00000
           D2           0.00000   0.00000   0.00000   0.00000   0.00000
           D3           0.00000   0.00000   0.00000   0.00000   0.00000
           D4           0.00000   0.00000   0.00000   0.00000   0.00000
                          A1        A2        A3        A4        A5
           A1           0.15799
           A2          -0.00201   0.15799
           A3           0.00402   0.00402   0.15196
           A4          -0.00201  -0.00201   0.00402   0.15799
           A5          -0.00201  -0.00201   0.00402  -0.00201   0.15799
           A6           0.00402   0.00402  -0.00804   0.00402   0.00402
           D1           0.00000   0.00000   0.00000   0.00000   0.00000
           D2           0.00000   0.00000   0.00000   0.00000   0.00000
           D3           0.00000   0.00000   0.00000   0.00000   0.00000
           D4           0.00000   0.00000   0.00000   0.00000   0.00000
                          A6        D1        D2        D3        D4
           A6           0.15196
           D1           0.00000   0.02681
           D2           0.00000   0.00000   0.02681
           D3           0.00000   0.00000   0.00000   0.02681
           D4           0.00000   0.00000   0.00000   0.00000   0.02681
 Use linear search instead of GDIIS.
     Eigenvalues ---    0.02681   0.02681   0.02681   0.12810   0.16000
     Eigenvalues ---    0.16000   0.16000   0.37230   0.37230   0.37230
     Eigenvalues ---    0.38083   0.566811000.000001000.000001000.00000
 RFO step:  Lambda=-1.66853206D-04 EMin= 2.68137385D-02
 Quartic linear search produced a step of  0.16884.
 Iteration  1 RMS(Cart)=  0.01210042 RMS(Int)=  0.00008176
 Iteration  2 RMS(Cart)=  0.00008260 RMS(Int)=  0.00000000
 Iteration  3 RMS(Cart)=  0.00000000 RMS(Int)=  0.00000000
 ClnCor:  largest displacement from symmetrization is 1.10D-13 for atom     5.
 Variable       Old X    -DE/DX   Delta X   Delta X   Delta X     New X
                                 (Linear)    (Quad)   (Total)
    R1        2.51224  -0.00088  -0.00823   0.00381  -0.00441   2.50783
    R2        2.04953   0.00062   0.00465  -0.00131   0.00334   2.05286
    R3        2.04953   0.00062   0.00465  -0.00131   0.00334   2.05286
    R4        2.04953   0.00062   0.00465  -0.00131   0.00334   2.05286
    R5        2.04953   0.00062   0.00465  -0.00131   0.00334   2.05286
    A1        2.11220   0.00157   0.00301   0.00927   0.01228   2.12448
    A2        2.11220   0.00157   0.00301   0.00927   0.01228   2.12448
    A3        2.05879  -0.00315  -0.00601  -0.01855  -0.02456   2.03423
    A4        2.11220   0.00157   0.00301   0.00927   0.01228   2.12448
    A5        2.11220   0.00157   0.00301   0.00927   0.01228   2.12448
    A6        2.05879  -0.00315  -0.00601  -0.01855  -0.02456   2.03423
    D1        3.14159   0.00000   0.00000   0.00000   0.00000   3.14159
    D2        0.00000   0.00000   0.00000   0.00000   0.00000   0.00000
    D3        0.00000   0.00000   0.00000   0.00000   0.00000   0.00000
    D4        3.14159   0.00000   0.00000   0.00000   0.00000   3.14159
         Item               Value     Threshold  Converged?
 Maximum Force            0.003148     0.000450     NO 
 RMS     Force            0.001462     0.000300     NO 
 Maximum Displacement     0.021037     0.001800     NO 
 RMS     Displacement     0.012114     0.001200     NO 
 Predicted change in Energy=-1.238839D-04
 GradGradGradGradGradGradGradGradGradGradGradGradGradGradGradGradGradGrad

 Leave Link  103 at Wed Apr 15 22:00:46 2015, MaxMem= 2013265920 cpu:      29.1
 (Enter /opt/g09/l202.exe)
                          Input orientation:                          
 ---------------------------------------------------------------------
 Center     Atomic      Atomic             Coordinates (Angstroms)
 Number     Number       Type             X           Y           Z
 ---------------------------------------------------------------------
      1          6           0       -0.663542    0.000000    0.000000
      2          6           0        0.663542    0.000000    0.000000
      3          1           0       -1.234758    0.924026    0.000000
      4          1           0       -1.234758   -0.924026    0.000000
      5          1           0        1.234758   -0.924026    0.000000
      6          1           0        1.234758    0.924026    0.000000
 ---------------------------------------------------------------------
                    Distance matrix (angstroms):
                    1          2          3          4          5
     1  C    0.000000
     2  C    1.327084   0.000000
     3  H    1.086329   2.111248   0.000000
     4  H    1.086329   2.111248   1.848052   0.000000
     5  H    2.111248   1.086329   3.084445   2.469515   0.000000
     6  H    2.111248   1.086329   2.469515   3.084445   1.848052
                    6
     6  H    0.000000
 Stoichiometry    C2H4
 Framework group  D2H[C2"(C.C),SG(H4)]
 Deg. of freedom     3
 Full point group                 D2H     NOp   8
 Largest Abelian subgroup         D2H     NOp   8
 Largest concise Abelian subgroup D2      NOp   4
                         Standard orientation:                         
 ---------------------------------------------------------------------
 Center     Atomic      Atomic             Coordinates (Angstroms)
 Number     Number       Type             X           Y           Z
 ---------------------------------------------------------------------
      1          6           0        0.000000    0.000000    0.663542
      2          6           0        0.000000    0.000000   -0.663542
      3          1           0        0.000000    0.924026    1.234758
      4          1           0        0.000000   -0.924026    1.234758
      5          1           0        0.000000   -0.924026   -1.234758
      6          1           0        0.000000    0.924026   -1.234758
 ---------------------------------------------------------------------
 Rotational constants (GHZ):    146.8261903     30.2384183     25.0744166
 Leave Link  202 at Wed Apr 15 22:00:46 2015, MaxMem= 2013265920 cpu:       1.8
 (Enter /opt/g09/l301.exe)
 Standard basis: 6-311G(d) (5D, 7F)
 Ernie: Thresh=  0.10000D-02 Tol=  0.10000D-05 Strict=F.
 There are    12 symmetry adapted basis functions of AG  symmetry.
 There are     1 symmetry adapted basis functions of B1G symmetry.
 There are     4 symmetry adapted basis functions of B2G symmetry.
 There are     7 symmetry adapted basis functions of B3G symmetry.
 There are     1 symmetry adapted basis functions of AU  symmetry.
 There are    12 symmetry adapted basis functions of B1U symmetry.
 There are     7 symmetry adapted basis functions of B2U symmetry.
 There are     4 symmetry adapted basis functions of B3U symmetry.
 Integral buffers will be    131072 words long.
 Raffenetti 2 integral format.
 Two-electron integral symmetry is turned on.
    48 basis functions,    84 primitive gaussians,    50 cartesian basis functions
     8 alpha electrons        8 beta electrons
       nuclear repulsion energy        33.4059430096 Hartrees.
 IExCor=  402 DFT=T Ex+Corr=B3LYP ExCW=0 ScaHFX=  0.200000
 ScaDFX=  0.800000  0.720000  1.000000  0.810000 ScalE2=  1.000000  1.000000
 IRadAn=      0 IRanWt=     -1 IRanGd=            0 ICorTp=0
 NAtoms=    6 NActive=    6 NUniq=    2 SFac= 3.00D+00 NAtFMM=   80 NAOKFM=F Big=F
 Leave Link  301 at Wed Apr 15 22:00:47 2015, MaxMem= 2013265920 cpu:       1.4
 (Enter /opt/g09/l302.exe)
 NPDir=0 NMtPBC=     1 NCelOv=     1 NCel=       1 NClECP=     1 NCelD=      1
         NCelK=      1 NCelE2=     1 NClLst=     1 CellRange=     0.0.
 One-electron integrals computed using PRISM.
 One-electron integral symmetry used in STVInt
 NBasis=    48 RedAO= T  NBF=    12     1     4     7     1    12     7     4
 NBsUse=    48 1.00D-06 NBFU=    12     1     4     7     1    12     7     4
 Precomputing XC quadrature grid using
 IXCGrd= 2 IRadAn=           0 IRanWt=          -1 IRanGd=           0 AccXCQ= 1.00D-10.
 NRdTot=     374 NPtTot=       47012 NUsed=       49721 NTot=       49753
 NSgBfM=    50    50    50    50    50 NAtAll=     6     6.
 Leave Link  302 at Wed Apr 15 22:00:57 2015, MaxMem= 2013265920 cpu:      64.8
 (Enter /opt/g09/l303.exe)
 DipDrv:  MaxL=1.
 Leave Link  303 at Wed Apr 15 22:00:58 2015, MaxMem= 2013265920 cpu:       6.9
 (Enter /opt/g09/l401.exe)
 Initial guess read from the read-write file.
 B after Tr=     0.000000    0.000000    0.000000
         Rot=    1.000000    0.000000    0.000000    0.000000 Ang=   0.00 deg.
 Guess basis will be translated and rotated to current coordinates.
 Initial guess orbital symmetries:
       Occupied  (AG) (B1U) (AG) (B1U) (B2U) (AG) (B3G) (B3U)
       Virtual   (B2G) (AG) (B2U) (B1U) (B3G) (B1U) (AG) (B2U)
                 (AG) (B3U) (B1U) (B2G) (B2U) (B3G) (AG) (B1U)
                 (B3G) (B1U) (B1G) (B3U) (B2U) (AG) (AU) (B1U)
                 (AG) (B3G) (B2G) (AG) (B1U) (B2U) (B1U) (B3U)
                 (B3G) (B2G) (B2U) (AG) (B3G) (B1U) (AG) (B1U)
 The electronic state of the initial guess is 1-AG.
 Generating alternative initial guess.
 Harris functional with IExCor=  402 diagonalized for initial guess.
 ExpMin= 1.03D-01 ExpMax= 4.56D+03 ExpMxC= 6.82D+02 IAcc=1 IRadAn=         1 AccDes= 0.00D+00
 HarFok:  IExCor=  402 AccDes= 0.00D+00 IRadAn=         1 IDoV= 1
 ScaDFX=  1.000000  1.000000  1.000000  1.000000
 FoFCou: FMM=F IPFlag=           0 FMFlag=      100000 FMFlg1=           0
         NFxFlg=           0 DoJE=T BraDBF=F KetDBF=T FulRan=T
         Omega=  0.000000  0.000000  1.000000  0.000000  0.000000 ICntrl=     500 IOpCl=  0
         NMat0=    1 NMatS0=    1 NMatT0=    0 NMatD0=    1 NMtDS0=    0 NMtDT0=    0
         I1Cent=           4 NGrid=           0.
 Petite list used in FoFCou.
 Harris En= -78.6545011444935    
 Leave Link  401 at Wed Apr 15 22:01:09 2015, MaxMem= 2013265920 cpu:      66.3
 (Enter /opt/g09/l502.exe)
 Closed shell SCF:
 Requested convergence on RMS density matrix=1.00D-08 within 128 cycles.
 Requested convergence on MAX density matrix=1.00D-06.
 Requested convergence on             energy=1.00D-06.
 No special actions if energy rises.
 Using DIIS extrapolation, IDIIS=  1040.
 Integral symmetry usage will be decided dynamically.
        49654 words used for storage of precomputed grid.
 Keep R1 ints in memory in canonical form, NReq=1758434.
 IEnd=       77180 IEndB=       77180 NGot=  2013265920 MDV=  2012394453
 LenX=  2012394453 LenY=  2012391512
 Symmetry not used in FoFDir.
 MinBra= 0 MaxBra= 2 Meth= 1.
 IRaf=       0 NMat=   1 IRICut=       1 DoRegI=T DoRafI=F ISym2E= 0 JSym2E=0.
 Integral accuracy reduced to 1.0D-05 until final iterations.

 Cycle   1  Pass 0  IDiag  1:
 E= -78.6068981600165    
 DIIS: error= 8.76D-04 at cycle   1 NSaved=   1.
 NSaved= 1 IEnMin= 1 EnMin= -78.6068981600165     IErMin= 1 ErrMin= 8.76D-04
 ErrMax= 8.76D-04 EMaxC= 1.00D-01 BMatC= 2.64D-05 BMatP= 2.64D-05
 IDIUse=3 WtCom= 9.91D-01 WtEn= 8.76D-03
 Coeff-Com:  0.100D+01
 Coeff-En:   0.100D+01
 Coeff:      0.100D+01
 Gap=     0.282 Goal=   None    Shift=    0.000
 RMSDP=1.10D-04 MaxDP=8.60D-04              OVMax= 2.07D-03

 Cycle   2  Pass 0  IDiag  1:
 E= -78.6069277536944     Delta-E=       -0.000029593678 Rises=F Damp=F
 DIIS: error= 1.94D-04 at cycle   2 NSaved=   2.
 NSaved= 2 IEnMin= 2 EnMin= -78.6069277536944     IErMin= 2 ErrMin= 1.94D-04
 ErrMax= 1.94D-04 EMaxC= 1.00D-01 BMatC= 8.48D-07 BMatP= 2.64D-05
 IDIUse=3 WtCom= 9.98D-01 WtEn= 1.94D-03
 Coeff-Com:  0.553D-01 0.945D+00
 Coeff-En:   0.000D+00 0.100D+01
 Coeff:      0.552D-01 0.945D+00
 Gap=     0.282 Goal=   None    Shift=    0.000
 RMSDP=3.13D-05 MaxDP=2.70D-04 DE=-2.96D-05 OVMax= 5.17D-04

 Cycle   3  Pass 0  IDiag  1:
 E= -78.6069281348571     Delta-E=       -0.000000381163 Rises=F Damp=F
 DIIS: error= 1.51D-04 at cycle   3 NSaved=   3.
 NSaved= 3 IEnMin= 3 EnMin= -78.6069281348571     IErMin= 3 ErrMin= 1.51D-04
 ErrMax= 1.51D-04 EMaxC= 1.00D-01 BMatC= 5.50D-07 BMatP= 8.48D-07
 IDIUse=3 WtCom= 9.98D-01 WtEn= 1.51D-03
 Coeff-Com: -0.266D-02 0.442D+00 0.561D+00
 Coeff-En:   0.000D+00 0.348D+00 0.652D+00
 Coeff:     -0.265D-02 0.442D+00 0.561D+00
 Gap=     0.282 Goal=   None    Shift=    0.000
 RMSDP=1.19D-05 MaxDP=1.36D-04 DE=-3.81D-07 OVMax= 2.38D-04

 Cycle   4  Pass 0  IDiag  1:
 E= -78.6069286873764     Delta-E=       -0.000000552519 Rises=F Damp=F
 DIIS: error= 2.16D-05 at cycle   4 NSaved=   4.
 NSaved= 4 IEnMin= 4 EnMin= -78.6069286873764     IErMin= 4 ErrMin= 2.16D-05
 ErrMax= 2.16D-05 EMaxC= 1.00D-01 BMatC= 1.04D-08 BMatP= 5.50D-07
 IDIUse=1 WtCom= 1.00D+00 WtEn= 0.00D+00
 Coeff-Com: -0.481D-02 0.939D-01 0.179D+00 0.732D+00
 Coeff:     -0.481D-02 0.939D-01 0.179D+00 0.732D+00
 Gap=     0.282 Goal=   None    Shift=    0.000
 RMSDP=1.54D-06 MaxDP=2.13D-05 DE=-5.53D-07 OVMax= 3.18D-05

 Initial convergence to 1.0D-05 achieved.  Increase integral accuracy.
 Cycle   5  Pass 1  IDiag  1:
 E= -78.6069532206592     Delta-E=       -0.000024533283 Rises=F Damp=F
 DIIS: error= 8.66D-06 at cycle   1 NSaved=   1.
 NSaved= 1 IEnMin= 1 EnMin= -78.6069532206592     IErMin= 1 ErrMin= 8.66D-06
 ErrMax= 8.66D-06 EMaxC= 1.00D-01 BMatC= 9.40D-10 BMatP= 9.40D-10
 IDIUse=1 WtCom= 1.00D+00 WtEn= 0.00D+00
 Coeff-Com:  0.100D+01
 Coeff:      0.100D+01
 Gap=     0.282 Goal=   None    Shift=    0.000
 RMSDP=1.54D-06 MaxDP=2.13D-05 DE=-2.45D-05 OVMax= 3.08D-05

 Cycle   6  Pass 1  IDiag  1:
 E= -78.6069532219813     Delta-E=       -0.000000001322 Rises=F Damp=F
 DIIS: error= 3.31D-06 at cycle   2 NSaved=   2.
 NSaved= 2 IEnMin= 2 EnMin= -78.6069532219813     IErMin= 2 ErrMin= 3.31D-06
 ErrMax= 3.31D-06 EMaxC= 1.00D-01 BMatC= 2.72D-10 BMatP= 9.40D-10
 IDIUse=1 WtCom= 1.00D+00 WtEn= 0.00D+00
 Coeff-Com:  0.278D+00 0.722D+00
 Coeff:      0.278D+00 0.722D+00
 Gap=     0.282 Goal=   None    Shift=    0.000
 RMSDP=3.45D-07 MaxDP=4.61D-06 DE=-1.32D-09 OVMax= 7.22D-06

 Cycle   7  Pass 1  IDiag  1:
 E= -78.6069532221927     Delta-E=       -0.000000000211 Rises=F Damp=F
 DIIS: error= 1.76D-06 at cycle   3 NSaved=   3.
 NSaved= 3 IEnMin= 3 EnMin= -78.6069532221927     IErMin= 3 ErrMin= 1.76D-06
 ErrMax= 1.76D-06 EMaxC= 1.00D-01 BMatC= 6.79D-11 BMatP= 2.72D-10
 IDIUse=1 WtCom= 1.00D+00 WtEn= 0.00D+00
 Coeff-Com: -0.313D-01 0.329D+00 0.703D+00
 Coeff:     -0.313D-01 0.329D+00 0.703D+00
 Gap=     0.282 Goal=   None    Shift=    0.000
 RMSDP=1.36D-07 MaxDP=1.38D-06 DE=-2.11D-10 OVMax= 2.92D-06

 Cycle   8  Pass 1  IDiag  1:
 E= -78.6069532222657     Delta-E=       -0.000000000073 Rises=F Damp=F
 DIIS: error= 2.89D-08 at cycle   4 NSaved=   4.
 NSaved= 4 IEnMin= 4 EnMin= -78.6069532222657     IErMin= 4 ErrMin= 2.89D-08
 ErrMax= 2.89D-08 EMaxC= 1.00D-01 BMatC= 2.01D-14 BMatP= 6.79D-11
 IDIUse=1 WtCom= 1.00D+00 WtEn= 0.00D+00
 Coeff-Com: -0.170D-02-0.243D-02 0.468D-02 0.999D+00
 Coeff:     -0.170D-02-0.243D-02 0.468D-02 0.999D+00
 Gap=     0.282 Goal=   None    Shift=    0.000
 RMSDP=2.87D-09 MaxDP=2.57D-08 DE=-7.30D-11 OVMax= 7.76D-08

 SCF Done:  E(RB3LYP) =  -78.6069532223     A.U. after    8 cycles
             Convg  =    0.2873D-08             -V/T =  2.0046
 KE= 7.824774296708D+01 PE=-2.486618652945D+02 EE= 5.840122609552D+01
 Leave Link  502 at Wed Apr 15 22:02:28 2015, MaxMem= 2013265920 cpu:     515.2
 (Enter /opt/g09/l701.exe)
 Compute integral first derivatives.
 ... and contract with generalized density number  0.
 Leave Link  701 at Wed Apr 15 22:02:33 2015, MaxMem= 2013265920 cpu:      30.0
 (Enter /opt/g09/l702.exe)
 L702 exits ... SP integral derivatives will be done elsewhere.
 Leave Link  702 at Wed Apr 15 22:02:33 2015, MaxMem= 2013265920 cpu:       0.8
 (Enter /opt/g09/l703.exe)
 Compute integral first derivatives, UseDBF=F ICtDFT=           0.
 Integral derivatives from FoFDir, PRISM(SPDF).
 Calling FoFJK, ICntrl=      2127 FMM=F ISym2X=1 I1Cent= 0 IOpClX= 0 NMat=1 NMatS=1 NMatT=0.
 FoFCou: FMM=F IPFlag=           0 FMFlag=      100000 FMFlg1=         800
         NFxFlg=           0 DoJE=F BraDBF=F KetDBF=F FulRan=T
         Omega=  0.000000  0.000000  1.000000  0.000000  0.000000 ICntrl=    2127 IOpCl=  0
         NMat0=    1 NMatS0=    1 NMatT0=    0 NMatD0=    1 NMtDS0=    0 NMtDT0=    0
         I1Cent=           0 NGrid=           0.
 Petite list used in FoFCou.
 Leave Link  703 at Wed Apr 15 22:02:38 2015, MaxMem= 2013265920 cpu:      28.6
 (Enter /opt/g09/l716.exe)
 Dipole        =-7.04285585D-17 0.00000000D+00 8.88178420D-16
 ***** Axes restored to original set *****
 -------------------------------------------------------------------
 Center     Atomic                   Forces (Hartrees/Bohr)
 Number     Number              X              Y              Z
 -------------------------------------------------------------------
      1        6           0.000038979    0.000000000    0.000000000
      2        6          -0.000038979    0.000000000    0.000000000
      3        1          -0.000122133   -0.000491755    0.000000000
      4        1          -0.000122133    0.000491755    0.000000000
      5        1           0.000122133    0.000491755    0.000000000
      6        1           0.000122133   -0.000491755    0.000000000
 -------------------------------------------------------------------
 Cartesian Forces:  Max     0.000491755 RMS     0.000239211
 Leave Link  716 at Wed Apr 15 22:02:38 2015, MaxMem= 2013265920 cpu:       0.8
 (Enter /opt/g09/l103.exe)

 GradGradGradGradGradGradGradGradGradGradGradGradGradGradGradGradGradGrad
 Berny optimization.
 Using GEDIIS/GDIIS optimizer.
 Internal  Forces:  Max     0.000496056 RMS     0.000292324
 Search for a local minimum.
 Step number   3 out of a maximum of   25
 All quantities printed in internal units (Hartrees-Bohrs-Radians)
 RMS Force = .29232D-03 SwitMx=.10000D-02 MixMth= 2
 Mixed Optimization -- En-DIIS/RFO-DIIS
 Update second derivatives using D2CorX and points    1    2    3
 DE= -1.38D-04 DEPred=-1.24D-04 R= 1.11D+00
 SS=  1.41D+00  RLast= 4.33D-02 DXNew= 5.0454D-01 1.2985D-01
 Trust test= 1.11D+00 RLast= 4.33D-02 DXMaxT set to 3.00D-01
 The second derivative matrix:
                          R1        R2        R3        R4        R5
           R1           0.56980
           R2          -0.01327   0.37906
           R3          -0.01327   0.00676   0.37906
           R4          -0.01327   0.00676   0.00676   0.37906
           R5          -0.01327   0.00676   0.00676   0.00676   0.37906
           A1           0.01089  -0.00280  -0.00280  -0.00280  -0.00280
           A2           0.01089  -0.00280  -0.00280  -0.00280  -0.00280
           A3          -0.02178   0.00561   0.00561   0.00561   0.00561
           A4           0.01089  -0.00280  -0.00280  -0.00280  -0.00280
           A5           0.01089  -0.00280  -0.00280  -0.00280  -0.00280
           A6          -0.02178   0.00561   0.00561   0.00561   0.00561
           D1           0.00000   0.00000   0.00000   0.00000   0.00000
           D2           0.00000   0.00000   0.00000   0.00000   0.00000
           D3           0.00000   0.00000   0.00000   0.00000   0.00000
           D4           0.00000   0.00000   0.00000   0.00000   0.00000
                          A1        A2        A3        A4        A5
           A1           0.15625
           A2          -0.00375   0.15625
           A3           0.00751   0.00751   0.14498
           A4          -0.00375  -0.00375   0.00751   0.15625
           A5          -0.00375  -0.00375   0.00751  -0.00375   0.15625
           A6           0.00751   0.00751  -0.01502   0.00751   0.00751
           D1           0.00000   0.00000   0.00000   0.00000   0.00000
           D2           0.00000   0.00000   0.00000   0.00000   0.00000
           D3           0.00000   0.00000   0.00000   0.00000   0.00000
           D4           0.00000   0.00000   0.00000   0.00000   0.00000
                          A6        D1        D2        D3        D4
           A6           0.14498
           D1           0.00000   0.02681
           D2           0.00000   0.00000   0.02681
           D3           0.00000   0.00000   0.00000   0.02681
           D4           0.00000   0.00000   0.00000   0.00000   0.02681
 Use linear search instead of GDIIS.
     Eigenvalues ---    0.02681   0.02681   0.02681   0.11081   0.16000
     Eigenvalues ---    0.16000   0.16000   0.37230   0.37230   0.37230
     Eigenvalues ---    0.39593   0.577351000.000001000.000001000.00000
 RFO step:  Lambda=-2.75745524D-06 EMin= 2.68137385D-02
 Quartic linear search produced a step of  0.14436.
 Iteration  1 RMS(Cart)=  0.00221894 RMS(Int)=  0.00000242
 Iteration  2 RMS(Cart)=  0.00000244 RMS(Int)=  0.00000000
 Iteration  3 RMS(Cart)=  0.00000000 RMS(Int)=  0.00000000
 ClnCor:  largest displacement from symmetrization is 6.29D-14 for atom     5.
 Variable       Old X    -DE/DX   Delta X   Delta X   Delta X     New X
                                 (Linear)    (Quad)   (Total)
    R1        2.50783   0.00021  -0.00064   0.00045  -0.00019   2.50764
    R2        2.05286  -0.00035   0.00048  -0.00120  -0.00072   2.05215
    R3        2.05286  -0.00035   0.00048  -0.00120  -0.00072   2.05215
    R4        2.05286  -0.00035   0.00048  -0.00120  -0.00072   2.05215
    R5        2.05286  -0.00035   0.00048  -0.00120  -0.00072   2.05215
    A1        2.12448   0.00025   0.00177   0.00033   0.00210   2.12658
    A2        2.12448   0.00025   0.00177   0.00033   0.00210   2.12658
    A3        2.03423  -0.00050  -0.00355  -0.00065  -0.00420   2.03003
    A4        2.12448   0.00025   0.00177   0.00033   0.00210   2.12658
    A5        2.12448   0.00025   0.00177   0.00033   0.00210   2.12658
    A6        2.03423  -0.00050  -0.00355  -0.00065  -0.00420   2.03003
    D1        3.14159   0.00000   0.00000   0.00000   0.00000   3.14159
    D2        0.00000   0.00000   0.00000   0.00000   0.00000   0.00000
    D3        0.00000   0.00000   0.00000   0.00000   0.00000   0.00000
    D4        3.14159   0.00000   0.00000   0.00000   0.00000   3.14159
         Item               Value     Threshold  Converged?
 Maximum Force            0.000496     0.000450     NO 
 RMS     Force            0.000292     0.000300     YES
 Maximum Displacement     0.003190     0.001800     NO 
 RMS     Displacement     0.002219     0.001200     NO 
 Predicted change in Energy=-3.621159D-06
 GradGradGradGradGradGradGradGradGradGradGradGradGradGradGradGradGradGrad

 Leave Link  103 at Wed Apr 15 22:02:45 2015, MaxMem= 2013265920 cpu:      43.9
 (Enter /opt/g09/l202.exe)
                          Input orientation:                          
 ---------------------------------------------------------------------
 Center     Atomic      Atomic             Coordinates (Angstroms)
 Number     Number       Type             X           Y           Z
 ---------------------------------------------------------------------
      1          6           0       -0.663493    0.000000    0.000000
      2          6           0        0.663493    0.000000    0.000000
      3          1           0       -1.236446    0.922503    0.000000
      4          1           0       -1.236446   -0.922503    0.000000
      5          1           0        1.236446   -0.922503    0.000000
      6          1           0        1.236446    0.922503    0.000000
 ---------------------------------------------------------------------
                    Distance matrix (angstroms):
                    1          2          3          4          5
     1  C    0.000000
     2  C    1.326985   0.000000
     3  H    1.085950   2.112055   0.000000
     4  H    1.085950   2.112055   1.845007   0.000000
     5  H    2.112055   1.085950   3.085327   2.472891   0.000000
     6  H    2.112055   1.085950   2.472891   3.085327   1.845007
                    6
     6  H    0.000000
 Stoichiometry    C2H4
 Framework group  D2H[C2"(C.C),SG(H4)]
 Deg. of freedom     3
 Full point group                 D2H     NOp   8
 Largest Abelian subgroup         D2H     NOp   8
 Largest concise Abelian subgroup D2      NOp   4
                         Standard orientation:                         
 ---------------------------------------------------------------------
 Center     Atomic      Atomic             Coordinates (Angstroms)
 Number     Number       Type             X           Y           Z
 ---------------------------------------------------------------------
      1          6           0        0.000000    0.000000    0.663493
      2          6           0        0.000000    0.000000   -0.663493
      3          1           0        0.000000    0.922503    1.236446
      4          1           0        0.000000   -0.922503    1.236446
      5          1           0        0.000000   -0.922503   -1.236446
      6          1           0        0.000000    0.922503   -1.236446
 ---------------------------------------------------------------------
 Rotational constants (GHZ):    147.3113378     30.2108717     25.0695614
 Leave Link  202 at Wed Apr 15 22:02:46 2015, MaxMem= 2013265920 cpu:       2.8
 (Enter /opt/g09/l301.exe)
 Standard basis: 6-311G(d) (5D, 7F)
 Ernie: Thresh=  0.10000D-02 Tol=  0.10000D-05 Strict=F.
 There are    12 symmetry adapted basis functions of AG  symmetry.
 There are     1 symmetry adapted basis functions of B1G symmetry.
 There are     4 symmetry adapted basis functions of B2G symmetry.
 There are     7 symmetry adapted basis functions of B3G symmetry.
 There are     1 symmetry adapted basis functions of AU  symmetry.
 There are    12 symmetry adapted basis functions of B1U symmetry.
 There are     7 symmetry adapted basis functions of B2U symmetry.
 There are     4 symmetry adapted basis functions of B3U symmetry.
 Integral buffers will be    131072 words long.
 Raffenetti 2 integral format.
 Two-electron integral symmetry is turned on.
    48 basis functions,    84 primitive gaussians,    50 cartesian basis functions
     8 alpha electrons        8 beta electrons
       nuclear repulsion energy        33.4090589848 Hartrees.
 IExCor=  402 DFT=T Ex+Corr=B3LYP ExCW=0 ScaHFX=  0.200000
 ScaDFX=  0.800000  0.720000  1.000000  0.810000 ScalE2=  1.000000  1.000000
 IRadAn=      0 IRanWt=     -1 IRanGd=            0 ICorTp=0
 NAtoms=    6 NActive=    6 NUniq=    2 SFac= 3.00D+00 NAtFMM=   80 NAOKFM=F Big=F
 Leave Link  301 at Wed Apr 15 22:02:47 2015, MaxMem= 2013265920 cpu:       1.6
 (Enter /opt/g09/l302.exe)
 NPDir=0 NMtPBC=     1 NCelOv=     1 NCel=       1 NClECP=     1 NCelD=      1
         NCelK=      1 NCelE2=     1 NClLst=     1 CellRange=     0.0.
 One-electron integrals computed using PRISM.
 One-electron integral symmetry used in STVInt
 NBasis=    48 RedAO= T  NBF=    12     1     4     7     1    12     7     4
 NBsUse=    48 1.00D-06 NBFU=    12     1     4     7     1    12     7     4
 Precomputing XC quadrature grid using
 IXCGrd= 2 IRadAn=           0 IRanWt=          -1 IRanGd=           0 AccXCQ= 1.00D-10.
 NRdTot=     374 NPtTot=       47012 NUsed=       49721 NTot=       49753
 NSgBfM=    50    50    50    50    50 NAtAll=     6     6.
 Leave Link  302 at Wed Apr 15 22:02:57 2015, MaxMem= 2013265920 cpu:      63.3
 (Enter /opt/g09/l303.exe)
 DipDrv:  MaxL=1.
 Leave Link  303 at Wed Apr 15 22:02:58 2015, MaxMem= 2013265920 cpu:       6.8
 (Enter /opt/g09/l401.exe)
 Initial guess read from the read-write file.
 B after Tr=     0.000000    0.000000    0.000000
         Rot=    1.000000    0.000000    0.000000    0.000000 Ang=   0.00 deg.
 Guess basis will be translated and rotated to current coordinates.
 Initial guess orbital symmetries:
       Occupied  (AG) (B1U) (AG) (B1U) (B2U) (AG) (B3G) (B3U)
       Virtual   (B2G) (AG) (B2U) (B1U) (B3G) (B1U) (AG) (B2U)
                 (AG) (B3U) (B1U) (B2G) (B2U) (B3G) (AG) (B1U)
                 (B3G) (B1U) (B1G) (B3U) (B2U) (AG) (AU) (B1U)
                 (AG) (B3G) (B2G) (AG) (B1U) (B2U) (B1U) (B3U)
                 (B3G) (B2G) (B2U) (AG) (B3G) (B1U) (AG) (B1U)
 The electronic state of the initial guess is 1-AG.
 Leave Link  401 at Wed Apr 15 22:03:02 2015, MaxMem= 2013265920 cpu:      22.4
 (Enter /opt/g09/l502.exe)
 Closed shell SCF:
 Requested convergence on RMS density matrix=1.00D-08 within 128 cycles.
 Requested convergence on MAX density matrix=1.00D-06.
 Requested convergence on             energy=1.00D-06.
 No special actions if energy rises.
 Using DIIS extrapolation, IDIIS=  1040.
 Integral symmetry usage will be decided dynamically.
        49654 words used for storage of precomputed grid.
 Keep R1 ints in memory in canonical form, NReq=1758434.
 IEnd=       77180 IEndB=       77180 NGot=  2013265920 MDV=  2012394453
 LenX=  2012394453 LenY=  2012391512
 Symmetry not used in FoFDir.
 MinBra= 0 MaxBra= 2 Meth= 1.
 IRaf=       0 NMat=   1 IRICut=       1 DoRegI=T DoRafI=F ISym2E= 0 JSym2E=0.

 Cycle   1  Pass 1  IDiag  1:
 E= -78.6069561631592    
 DIIS: error= 1.80D-04 at cycle   1 NSaved=   1.
 NSaved= 1 IEnMin= 1 EnMin= -78.6069561631592     IErMin= 1 ErrMin= 1.80D-04
 ErrMax= 1.80D-04 EMaxC= 1.00D-01 BMatC= 8.18D-07 BMatP= 8.18D-07
 IDIUse=3 WtCom= 9.98D-01 WtEn= 1.80D-03
 Coeff-Com:  0.100D+01
 Coeff-En:   0.100D+01
 Coeff:      0.100D+01
 Gap=     0.282 Goal=   None    Shift=    0.000
 RMSDP=1.87D-05 MaxDP=1.72D-04              OVMax= 3.82D-04

 Cycle   2  Pass 1  IDiag  1:
 E= -78.6069569705950     Delta-E=       -0.000000807436 Rises=F Damp=F
 DIIS: error= 3.73D-05 at cycle   2 NSaved=   2.
 NSaved= 2 IEnMin= 2 EnMin= -78.6069569705950     IErMin= 2 ErrMin= 3.73D-05
 ErrMax= 3.73D-05 EMaxC= 1.00D-01 BMatC= 4.63D-08 BMatP= 8.18D-07
 IDIUse=1 WtCom= 1.00D+00 WtEn= 0.00D+00
 Coeff-Com:  0.125D+00 0.875D+00
 Coeff:      0.125D+00 0.875D+00
 Gap=     0.282 Goal=   None    Shift=    0.000
 RMSDP=4.84D-06 MaxDP=5.48D-05 DE=-8.07D-07 OVMax= 7.84D-05

 Cycle   3  Pass 1  IDiag  1:
 E= -78.6069570062887     Delta-E=       -0.000000035694 Rises=F Damp=F
 DIIS: error= 1.81D-05 at cycle   3 NSaved=   3.
 NSaved= 3 IEnMin= 3 EnMin= -78.6069570062887     IErMin= 3 ErrMin= 1.81D-05
 ErrMax= 1.81D-05 EMaxC= 1.00D-01 BMatC= 8.20D-09 BMatP= 4.63D-08
 IDIUse=1 WtCom= 1.00D+00 WtEn= 0.00D+00
 Coeff-Com:  0.714D-02 0.279D+00 0.714D+00
 Coeff:      0.714D-02 0.279D+00 0.714D+00
 Gap=     0.282 Goal=   None    Shift=    0.000
 RMSDP=1.75D-06 MaxDP=2.33D-05 DE=-3.57D-08 OVMax= 3.41D-05

 Cycle   4  Pass 1  IDiag  1:
 E= -78.6069570133943     Delta-E=       -0.000000007106 Rises=F Damp=F
 DIIS: error= 7.26D-06 at cycle   4 NSaved=   4.
 NSaved= 4 IEnMin= 4 EnMin= -78.6069570133943     IErMin= 4 ErrMin= 7.26D-06
 ErrMax= 7.26D-06 EMaxC= 1.00D-01 BMatC= 1.35D-09 BMatP= 8.20D-09
 IDIUse=1 WtCom= 1.00D+00 WtEn= 0.00D+00
 Coeff-Com: -0.528D-02 0.749D-01 0.341D+00 0.589D+00
 Coeff:     -0.528D-02 0.749D-01 0.341D+00 0.589D+00
 Gap=     0.282 Goal=   None    Shift=    0.000
 RMSDP=5.66D-07 MaxDP=5.67D-06 DE=-7.11D-09 OVMax= 1.10D-05

 Cycle   5  Pass 1  IDiag  1:
 E= -78.6069570147701     Delta-E=       -0.000000001376 Rises=F Damp=F
 DIIS: error= 1.02D-07 at cycle   5 NSaved=   5.
 NSaved= 5 IEnMin= 5 EnMin= -78.6069570147701     IErMin= 5 ErrMin= 1.02D-07
 ErrMax= 1.02D-07 EMaxC= 1.00D-01 BMatC= 2.56D-13 BMatP= 1.35D-09
 IDIUse=1 WtCom= 1.00D+00 WtEn= 0.00D+00
 Coeff-Com: -0.424D-04-0.245D-02-0.883D-02-0.244D-02 0.101D+01
 Coeff:     -0.424D-04-0.245D-02-0.883D-02-0.244D-02 0.101D+01
 Gap=     0.282 Goal=   None    Shift=    0.000
 RMSDP=1.13D-08 MaxDP=6.25D-08 DE=-1.38D-09 OVMax= 2.69D-07

 Cycle   6  Pass 1  IDiag  1:
 E= -78.6069570147706     Delta-E=       -0.000000000001 Rises=F Damp=F
 DIIS: error= 6.26D-09 at cycle   6 NSaved=   6.
 NSaved= 6 IEnMin= 6 EnMin= -78.6069570147706     IErMin= 6 ErrMin= 6.26D-09
 ErrMax= 6.26D-09 EMaxC= 1.00D-01 BMatC= 1.02D-15 BMatP= 2.56D-13
 IDIUse=1 WtCom= 1.00D+00 WtEn= 0.00D+00
 Coeff-Com:  0.182D-04-0.273D-03-0.730D-03-0.978D-03-0.158D-01 0.102D+01
 Coeff:      0.182D-04-0.273D-03-0.730D-03-0.978D-03-0.158D-01 0.102D+01
 Gap=     0.282 Goal=   None    Shift=    0.000
 RMSDP=8.21D-10 MaxDP=5.60D-09 DE=-5.83D-13 OVMax= 1.27D-08

 SCF Done:  E(RB3LYP) =  -78.6069570148     A.U. after    6 cycles
             Convg  =    0.8208D-09             -V/T =  2.0046
 KE= 7.824976428031D+01 PE=-2.486690426324D+02 EE= 5.840326235257D+01
 Leave Link  502 at Wed Apr 15 22:03:59 2015, MaxMem= 2013265920 cpu:     391.7
 (Enter /opt/g09/l701.exe)
 Compute integral first derivatives.
 ... and contract with generalized density number  0.
 Leave Link  701 at Wed Apr 15 22:04:04 2015, MaxMem= 2013265920 cpu:      30.3
[...]
      4        1           0.000024697    0.000060606    0.000000000
      5        1          -0.000024697    0.000060606    0.000000000
      6        1          -0.000024697   -0.000060606    0.000000000
 -------------------------------------------------------------------
 Cartesian Forces:  Max     0.000123629 RMS     0.000051478
 Leave Link  716 at Wed Apr 15 22:04:09 2015, MaxMem= 2013265920 cpu:       0.8
 (Enter /opt/g09/l103.exe)

 GradGradGradGradGradGradGradGradGradGradGradGradGradGradGradGradGradGrad
 Berny optimization.
 Using GEDIIS/GDIIS optimizer.
 Internal  Forces:  Max     0.000074234 RMS     0.000039020
 Search for a local minimum.
 Step number   4 out of a maximum of   25
 All quantities printed in internal units (Hartrees-Bohrs-Radians)
 RMS Force = .39020D-04 SwitMx=.10000D-02 MixMth= 2
 Mixed Optimization -- En-DIIS/RFO-DIIS
 Swaping is turned off.
 Update second derivatives using D2CorX and points    1    2    3    4
 DE= -3.79D-06 DEPred=-3.62D-06 R= 1.05D+00
 SS=  1.41D+00  RLast= 7.41D-03 DXNew= 5.0454D-01 2.2234D-02
 Trust test= 1.05D+00 RLast= 7.41D-03 DXMaxT set to 3.00D-01
 The second derivative matrix:
                          R1        R2        R3        R4        R5
           R1           0.56019
           R2          -0.00359   0.37175
           R3          -0.00359  -0.00055   0.37175
           R4          -0.00359  -0.00055  -0.00055   0.37175
           R5          -0.00359  -0.00055  -0.00055  -0.00055   0.37175
           A1           0.00896  -0.00099  -0.00099  -0.00099  -0.00099
           A2           0.00896  -0.00099  -0.00099  -0.00099  -0.00099
           A3          -0.01792   0.00198   0.00198   0.00198   0.00198
           A4           0.00896  -0.00099  -0.00099  -0.00099  -0.00099
           A5           0.00896  -0.00099  -0.00099  -0.00099  -0.00099
           A6          -0.01792   0.00198   0.00198   0.00198   0.00198
           D1           0.00000   0.00000   0.00000   0.00000   0.00000
           D2           0.00000   0.00000   0.00000   0.00000   0.00000
           D3           0.00000   0.00000   0.00000   0.00000   0.00000
           D4           0.00000   0.00000   0.00000   0.00000   0.00000
                          A1        A2        A3        A4        A5
           A1           0.15617
           A2          -0.00383   0.15617
           A3           0.00766   0.00766   0.14469
           A4          -0.00383  -0.00383   0.00766   0.15617
           A5          -0.00383  -0.00383   0.00766  -0.00383   0.15617
           A6           0.00766   0.00766  -0.01531   0.00766   0.00766
           D1           0.00000   0.00000   0.00000   0.00000   0.00000
           D2           0.00000   0.00000   0.00000   0.00000   0.00000
           D3           0.00000   0.00000   0.00000   0.00000   0.00000
           D4           0.00000   0.00000   0.00000   0.00000   0.00000
                          A6        D1        D2        D3        D4
           A6           0.14469
           D1           0.00000   0.02681
           D2           0.00000   0.00000   0.02681
           D3           0.00000   0.00000   0.00000   0.02681
           D4           0.00000   0.00000   0.00000   0.00000   0.02681
     Eigenvalues ---    0.02681   0.02681   0.02681   0.11175   0.16000
     Eigenvalues ---    0.16000   0.16000   0.36995   0.37230   0.37230
     Eigenvalues ---    0.37230   0.562651000.000001000.000001000.00000
 En-DIIS/RFO-DIIS IScMMF=        0 using points:     4    3
 RFO step:  Lambda=-3.59344193D-08.
 DIIS coeffs:      1.05253     -0.05253
 Iteration  1 RMS(Cart)=  0.00010984 RMS(Int)=  0.00000000
 Iteration  2 RMS(Cart)=  0.00000000 RMS(Int)=  0.00000000
 ClnCor:  largest displacement from symmetrization is 4.32D-14 for atom     5.
 Variable       Old X    -DE/DX   Delta X   Delta X   Delta X     New X
                                  (DIIS)     (GDIIS)  (Total)
    R1        2.50764   0.00007  -0.00001   0.00013   0.00012   2.50776
    R2        2.05215  -0.00006  -0.00004  -0.00013  -0.00017   2.05198
    R3        2.05215  -0.00006  -0.00004  -0.00013  -0.00017   2.05198
    R4        2.05215  -0.00006  -0.00004  -0.00013  -0.00017   2.05198
    R5        2.05215  -0.00006  -0.00004  -0.00013  -0.00017   2.05198
    A1        2.12658   0.00001   0.00011  -0.00006   0.00005   2.12663
    A2        2.12658   0.00001   0.00011  -0.00006   0.00005   2.12663
    A3        2.03003  -0.00002  -0.00022   0.00012  -0.00010   2.02993
    A4        2.12658   0.00001   0.00011  -0.00006   0.00005   2.12663
    A5        2.12658   0.00001   0.00011  -0.00006   0.00005   2.12663
    A6        2.03003  -0.00002  -0.00022   0.00012  -0.00010   2.02993
    D1        3.14159   0.00000   0.00000   0.00000   0.00000   3.14159
    D2        0.00000   0.00000   0.00000   0.00000   0.00000   0.00000
    D3        0.00000   0.00000   0.00000   0.00000   0.00000   0.00000
    D4        3.14159   0.00000   0.00000   0.00000   0.00000   3.14159
         Item               Value     Threshold  Converged?
 Maximum Force            0.000074     0.000450     YES
 RMS     Force            0.000039     0.000300     YES
 Maximum Displacement     0.000201     0.001800     YES
 RMS     Displacement     0.000110     0.001200     YES
 Predicted change in Energy=-2.881480D-08
 Optimization completed.
    -- Stationary point found.
                           ----------------------------
                           !   Optimized Parameters   !
                           ! (Angstroms and Degrees)  !
 --------------------------                            --------------------------
 ! Name  Definition              Value          Derivative Info.                !
 --------------------------------------------------------------------------------
 ! R1    R(1,2)                  1.327          -DE/DX =    0.0001              !
 ! R2    R(1,3)                  1.086          -DE/DX =   -0.0001              !
 ! R3    R(1,4)                  1.086          -DE/DX =   -0.0001              !
 ! R4    R(2,5)                  1.086          -DE/DX =   -0.0001              !
 ! R5    R(2,6)                  1.086          -DE/DX =   -0.0001              !
 ! A1    A(2,1,3)              121.8438         -DE/DX =    0.0                 !
 ! A2    A(2,1,4)              121.8438         -DE/DX =    0.0                 !
 ! A3    A(3,1,4)              116.3124         -DE/DX =    0.0                 !
 ! A4    A(1,2,5)              121.8438         -DE/DX =    0.0                 !
 ! A5    A(1,2,6)              121.8438         -DE/DX =    0.0                 !
 ! A6    A(5,2,6)              116.3124         -DE/DX =    0.0                 !
 ! D1    D(3,1,2,5)            180.0            -DE/DX =    0.0                 !
 ! D2    D(3,1,2,6)              0.0            -DE/DX =    0.0                 !
 ! D3    D(4,1,2,5)              0.0            -DE/DX =    0.0                 !
 ! D4    D(4,1,2,6)            180.0            -DE/DX =    0.0                 !
 --------------------------------------------------------------------------------
 GradGradGradGradGradGradGradGradGradGradGradGradGradGradGradGradGradGrad

 Largest change from initial coordinates is atom    3       0.024 Angstoms.
 Leave Link  103 at Wed Apr 15 22:04:13 2015, MaxMem= 2013265920 cpu:      21.5
 (Enter /opt/g09/l202.exe)
                          Input orientation:                          
 ---------------------------------------------------------------------
 Center     Atomic      Atomic             Coordinates (Angstroms)
 Number     Number       Type             X           Y           Z
 ---------------------------------------------------------------------
      1          6           0       -0.663493    0.000000    0.000000
      2          6           0        0.663493    0.000000    0.000000
      3          1           0       -1.236446    0.922503    0.000000
      4          1           0       -1.236446   -0.922503    0.000000
      5          1           0        1.236446   -0.922503    0.000000
      6          1           0        1.236446    0.922503    0.000000
 ---------------------------------------------------------------------
                    Distance matrix (angstroms):
                    1          2          3          4          5
     1  C    0.000000
     2  C    1.326985   0.000000
     3  H    1.085950   2.112055   0.000000
     4  H    1.085950   2.112055   1.845007   0.000000
     5  H    2.112055   1.085950   3.085327   2.472891   0.000000
     6  H    2.112055   1.085950   2.472891   3.085327   1.845007
                    6
     6  H    0.000000
 Stoichiometry    C2H4
 Framework group  D2H[C2"(C.C),SG(H4)]
 Deg. of freedom     3
 Full point group                 D2H     NOp   8
 Largest Abelian subgroup         D2H     NOp   8
 Largest concise Abelian subgroup D2      NOp   4
                         Standard orientation:                         
 ---------------------------------------------------------------------
 Center     Atomic      Atomic             Coordinates (Angstroms)
 Number     Number       Type             X           Y           Z
 ---------------------------------------------------------------------
      1          6           0        0.000000    0.000000    0.663493
      2          6           0        0.000000    0.000000   -0.663493
      3          1           0        0.000000    0.922503    1.236446
      4          1           0        0.000000   -0.922503    1.236446
      5          1           0        0.000000   -0.922503   -1.236446
      6          1           0        0.000000    0.922503   -1.236446
 ---------------------------------------------------------------------
 Rotational constants (GHZ):    147.3113378     30.2108717     25.0695614
 Leave Link  202 at Wed Apr 15 22:04:13 2015, MaxMem= 2013265920 cpu:       2.2
 (Enter /opt/g09/l601.exe)
 Copying SCF densities to generalized density rwf, IOpCl= 0 IROHF=0.

 **********************************************************************

            Population analysis using the SCF density.

 **********************************************************************

 Orbital symmetries:
       Occupied  (AG) (B1U) (AG) (B1U) (B2U) (AG) (B3G) (B3U)
       Virtual   (B2G) (AG) (B2U) (B1U) (B3G) (B1U) (AG) (B2U)
                 (AG) (B3U) (B1U) (B2G) (B2U) (B3G) (AG) (B1U)
                 (B3G) (B1U) (B1G) (B3U) (B2U) (AG) (AU) (B1U)
                 (AG) (B3G) (B2G) (AG) (B1U) (B2U) (B1U) (B3U)
                 (B3G) (B2G) (B2U) (AG) (B3G) (B1U) (AG) (B1U)
 The electronic state is 1-AG.
 Alpha  occ. eigenvalues --  -10.16930 -10.16845  -0.76421  -0.58338  -0.47327
 Alpha  occ. eigenvalues --   -0.42611  -0.35960  -0.27672
 Alpha virt. eigenvalues --    0.00559   0.06166   0.08579   0.09012   0.15907
 Alpha virt. eigenvalues --    0.30003   0.30857   0.31494   0.38416   0.40569
 Alpha virt. eigenvalues --    0.41302   0.50441   0.58466   0.61528   0.68745
 Alpha virt. eigenvalues --    0.69409   0.76356   0.82444   1.14974   1.19306
 Alpha virt. eigenvalues --    1.38347   1.39655   1.46176   1.63999   1.67095
 Alpha virt. eigenvalues --    1.86918   1.95872   2.16430   2.17450   2.33067
 Alpha virt. eigenvalues --    2.36276   2.58388   2.69917   2.82033   3.12543
 Alpha virt. eigenvalues --    3.17385   3.27822   3.63974  23.25891  24.21429
          Condensed to atoms (all electrons):
              1          2          3          4          5          6
     1  C    5.061733   0.639514   0.390717   0.390717  -0.038357  -0.038357
     2  C    0.639514   5.061733  -0.038357  -0.038357   0.390717   0.390717
     3  H    0.390717  -0.038357   0.489689  -0.041008   0.006977  -0.011002
     4  H    0.390717  -0.038357  -0.041008   0.489689  -0.011002   0.006977
     5  H   -0.038357   0.390717   0.006977  -0.011002   0.489689  -0.041008
     6  H   -0.038357   0.390717  -0.011002   0.006977  -0.041008   0.489689
 Mulliken atomic charges:
              1
     1  C   -0.405967
     2  C   -0.405967
     3  H    0.202983
     4  H    0.202983
     5  H    0.202983
     6  H    0.202983
 Sum of Mulliken atomic charges =   0.00000
 Mulliken charges with hydrogens summed into heavy atoms:
              1
     1  C    0.000000
     2  C    0.000000
 Sum of Mulliken charges with hydrogens summed into heavy atoms =   0.00000
 Electronic spatial extent (au):  <R**2>=             82.7077
 Charge=              0.0000 electrons
 Dipole moment (field-independent basis, Debye):
    X=              0.0000    Y=              0.0000    Z=              0.0000  Tot=              0.0000
 Quadrupole moment (field-independent basis, Debye-Ang):
   XX=            -15.6195   YY=            -12.2808   ZZ=            -12.2478
   XY=              0.0000   XZ=              0.0000   YZ=              0.0000
 Traceless Quadrupole moment (field-independent basis, Debye-Ang):
   XX=             -2.2368   YY=              1.1019   ZZ=              1.1349
   XY=              0.0000   XZ=              0.0000   YZ=              0.0000
 Octapole moment (field-independent basis, Debye-Ang**2):
  XXX=              0.0000  YYY=              0.0000  ZZZ=              0.0000  XYY=              0.0000
  XXY=              0.0000  XXZ=              0.0000  XZZ=              0.0000  YZZ=              0.0000
  YYZ=              0.0000  XYZ=              0.0000
 Hexadecapole moment (field-independent basis, Debye-Ang**3):
 XXXX=            -18.0196 YYYY=            -27.1145 ZZZZ=            -68.7387 XXXY=              0.0000
 XXXZ=              0.0000 YYYX=              0.0000 YYYZ=              0.0000 ZZZX=              0.0000
 ZZZY=              0.0000 XXYY=             -8.1704 XXZZ=            -15.4280 YYZZ=            -13.4320
 XXYZ=              0.0000 YYXZ=              0.0000 ZZXY=              0.0000
 N-N= 3.340905898475D+01 E-N=-2.486690426381D+02  KE= 7.824976428031D+01
 Symmetry AG   KE= 3.764376663169D+01
 Symmetry B1G  KE= 3.553477670570D-34
 Symmetry B2G  KE= 1.577053313048D-32
 Symmetry B3G  KE= 2.117114040692D+00
 Symmetry AU   KE= 4.669189316113D-34
 Symmetry B1U  KE= 3.448102247117D+01
 Symmetry B2U  KE= 1.906769932521D+00
 Symmetry B3U  KE= 2.101091204231D+00
 No NMR shielding tensors so no spin-rotation constants.
 Leave Link  601 at Wed Apr 15 22:04:20 2015, MaxMem= 2013265920 cpu:      44.6
 (Enter /opt/g09/l9999.exe)
 1\1\GINC-TITANIUM\FOpt\RB3LYP\6-311G(d)\C2H4\JARVIST\15-Apr-2015\0\\#p
  opt b3lyp/6-311g(d) geom=connectivity\\C2H2 Ethylene; Geom Opt\\0,1\C
 ,-0.663492616,0.,0.\C,0.663492616,0.,0.\H,-1.2364456781,0.922503333,0.
 \H,-1.2364456781,-0.922503333,0.\H,1.2364456781,-0.922503333,0.\H,1.23
 64456781,0.922503333,0.\\Version=EM64L-G09RevA.02\State=1-AG\HF=-78.60
 6957\RMSD=8.208e-10\RMSF=5.148e-05\Dipole=0.,0.,0.\Quadrupole=0.843778
 2,0.8192273,-1.6630055,0.,0.,0.\PG=D02H [C2"(C1.C1),SG(H4)]\\@


                                                                                    A
                                                                                  AA
                                                                                 AAA
                                                                                AAAA
                                                                               AAAAA
                                                                              AAAAAA   KKKKKKKK
                                                                             AAAAAAA   KKKKKKKK
                                                                            AAAAAAAA   KKKKKKKK
                                       ZZZZZZZZZZZZZZZZZZZZ                AAAA  AAA   KKKKKKKK
                                       ZZZZZZZZZZZZZZZZZZZ                AAAA   AAA   KKKKKKKK          K
                                       ZZZZZZZZZZZZZZZZZZ                AAAA    AAA   KKKKKKKK         KKK
                                       ZZZZZZZZZZZZZZZZZ                AAAA     AAA   KKKKKKKK        KKKKK
                                       ZZZZZZZZZZZZZZZZ                AAAA      AAA   KKKKKKKK       KKKKKKK
                                                ZZZZZZ                AAAA       AAA   KKKKKKKK      KKKKKKK
                                               ZZZZZZ                AAAA        AAA   KKKKKKKK     KKKKKKK
                                              ZZZZZZ                AAAA         AAA   KKKKKKKK    KKKKKKK
                                             ZZZZZZ                AAAA          AAA   KKKKKKKK   KKKKKKK
                                            ZZZZZZ                AAAAAAAAAAAAAAAAAA   KKKKKKKK  KKKKKKK
                                           ZZZZZZ                AAAAAAAAAAAAAAAAAAA   KKKKKKKK KKKKKKK
                                          ZZZZZZ                AAAAAAAAAAAAAAAAAAAA   KKKKKKKKKKKKKKK
                                         ZZZZZZ                AAAAAAAAAAAAAAAAAAAAA   KKKKKKKKKKKKKK
                                        ZZZZZZ                AAAAAA        AAAAAAAA   KKKKKKKKKKKKK
                                       ZZZZZZ                AAAAAA         AAAAAAAA   KKKKKKKKKKKK
                                      ZZZZZZ                AAAAAA          AAAAAAAA   KKKKKKKKKKK
                                     ZZZZZZ                AAAAAA           AAAAAAAA   KKKKKKKKKKKK
                                    ZZZZZZ                AAAAAA            AAAAAAAA   KKKKKKKKKKKKK
                                   ZZZZZZ                AAAAAA             AAAAAAAA   KKKKKKKKKKKKKK
                                  ZZZZZZ                AAAAAA              AAAAAAAA   KKKKKKKKKKKKKKK
                                 ZZZZZZ                AAAAAA               AAAAAAAA   KKKKK KKKKKKKKKK
                                ZZZZZZ                AAAAAA                AAAAAAAA   KKKKK  KKKKKKKKKK
                               ZZZZZZ                AAAAAA                            KKKKK   KKKKKKKKKK
                              ZZZZZZ                AAAAAA                             KKKKK    KKKKKKKKKK
                             ZZZZZZ                                                    KKKKK     KKKKKKKKKK
                            ZZZZZZ                                                     KKKKK      KKKKKKKKKK
                           ZZZZZZ                                                      KKKKK       KKKKKKKKKK
                          ZZZZZZ                                                       KKKKK        KKKKKKKKKK
                         ZZZZZZZZZZZZZZZZZZZZZZZZZZZZZZZZZZZZZZZZ                      KKKKK         KKKKKKKKKK
                        ZZZZZZZZZZZZZZZZZZZZZZZZZZZZZZZZZZZZZZZZZ                      KKKKK          KKKKKKKKKK
                       ZZZZZZZZZZZZZZZZZZZZZZZZZZZZZZZZZZZZZZZZZZ                      KKKKK           KKKKKKKKKK
                       ZZZZZZZZZZZZZZZZZZZZZZZZZZZZZZZZZZZZZZZZZZ                      KKKKK            KKKKKKKKKK
                       ZZZZZZZZZZZZZZZZZZZZZZZZZZZZZZZZZZZZZZZZZZ                      KKKKK             KKKKKKKKKK
                       ZZZZZZZZZZZZZZZZZZZZZZZZZZZZZZZZZZZZZZZZZZ                      KKKKK              KKKKKKKKKK
                       ZZZZZZZZZZZZZZZZZZZZZZZZZZZZZZZZZZZZZZZZZZ                      KKKKK               KKKKKKKKKK
                       ZZZZZZZZZZZZZZZZZZZZZZZZZZZZZZZZZZZZZZZZZZ                      KKKKK                KKKKKKKKKK
                       ZZZZZZZZZZZZZZZZZZZZZZZZZZZZZZZZZZZZZZZZZZ                      KKKKK
                                                                                       KKKKK
                                                                                          (J.P.)
 Job cpu time:  0 days  0 hours 51 minutes 17.4 seconds.
 File lengths (MBytes):  RWF=      5 Int=      0 D2E=      0 Chk=      1 Scr=      1
 Normal termination of Gaussian 09 at Wed Apr 15 22:04:21 2015.
